 # Sb6
 
         432  atoms
           1  atom types
 
      0.000000000000      26.124000000000  xlo xhi
      0.000000000000      22.624047648000  ylo yhi
      0.000000000000      22.780000000000  zlo zhi
    -13.062000000000       0.000000000000       0.000000000000  xy xz yz
 
Masses
 
            1   121.76000000            # Sb
 
Atoms # atomic
 
         1    1        2.177000023163       1.256891519455       0.749306133842
         2    1        0.000000000000       0.000000000000       3.047360493458
         3    1       -0.000000023163       2.513783088545       4.545972879243
         4    1        2.177000023163       1.256891519455       6.844027120757
         5    1        0.000000000000       0.000000000000       8.342639506542
         6    1       -0.000000023163       2.513783088545      10.640693866158
         7    1        6.531000023163       1.256891519455       0.749306133842
         8    1        4.354000000000       0.000000000000       3.047360493458
         9    1        4.353999976837       2.513783088545       4.545972879243
        10    1        6.531000023163       1.256891519455       6.844027120757
        11    1        4.354000000000       0.000000000000       8.342639506542
        12    1        4.353999976837       2.513783088545      10.640693866158
        13    1       10.885000023163       1.256891519455       0.749306133842
        14    1        8.708000000000       0.000000000000       3.047360493458
        15    1        8.707999976837       2.513783088545       4.545972879243
        16    1       10.885000023163       1.256891519455       6.844027120757
        17    1        8.708000000000       0.000000000000       8.342639506542
        18    1        8.707999976837       2.513783088545      10.640693866158
        19    1       15.239000023163       1.256891519455       0.749306133842
        20    1       13.062000000000       0.000000000000       3.047360493458
        21    1       13.061999976837       2.513783088545       4.545972879243
        22    1       15.239000023163       1.256891519455       6.844027120757
        23    1       13.062000000000       0.000000000000       8.342639506542
        24    1       13.061999976837       2.513783088545      10.640693866158
        25    1       19.593000023163       1.256891519455       0.749306133842
        26    1       17.416000000000       0.000000000000       3.047360493458
        27    1       17.415999976837       2.513783088545       4.545972879243
        28    1       19.593000023163       1.256891519455       6.844027120757
        29    1       17.416000000000       0.000000000000       8.342639506542
        30    1       17.415999976837       2.513783088545      10.640693866158
        31    1       23.947000023163       1.256891519455       0.749306133842
        32    1       21.770000000000       0.000000000000       3.047360493458
        33    1       21.769999976837       2.513783088545       4.545972879243
        34    1       23.947000023163       1.256891519455       6.844027120757
        35    1       21.770000000000       0.000000000000       8.342639506542
        36    1       21.769999976837       2.513783088545      10.640693866158
        37    1        0.000000023163       5.027566127455       0.749306133842
        38    1       -2.177000000000       3.770674608000       3.047360493458
        39    1       -2.177000023163       6.284457696545       4.545972879243
        40    1        0.000000023163       5.027566127455       6.844027120757
        41    1       -2.177000000000       3.770674608000       8.342639506542
        42    1       -2.177000023163       6.284457696545      10.640693866158
        43    1        4.354000023163       5.027566127455       0.749306133842
        44    1        2.177000000000       3.770674608000       3.047360493458
        45    1        2.176999976837       6.284457696545       4.545972879243
        46    1        4.354000023163       5.027566127455       6.844027120757
        47    1        2.177000000000       3.770674608000       8.342639506542
        48    1        2.176999976837       6.284457696545      10.640693866158
        49    1        8.708000023163       5.027566127455       0.749306133842
        50    1        6.531000000000       3.770674608000       3.047360493458
        51    1        6.530999976837       6.284457696545       4.545972879243
        52    1        8.708000023163       5.027566127455       6.844027120757
        53    1        6.531000000000       3.770674608000       8.342639506542
        54    1        6.530999976837       6.284457696545      10.640693866158
        55    1       13.062000023163       5.027566127455       0.749306133842
        56    1       10.885000000000       3.770674608000       3.047360493458
        57    1       10.884999976837       6.284457696545       4.545972879243
        58    1       13.062000023163       5.027566127455       6.844027120757
        59    1       10.885000000000       3.770674608000       8.342639506542
        60    1       10.884999976837       6.284457696545      10.640693866158
        61    1       17.416000023163       5.027566127455       0.749306133842
        62    1       15.239000000000       3.770674608000       3.047360493458
        63    1       15.238999976837       6.284457696545       4.545972879243
        64    1       17.416000023163       5.027566127455       6.844027120757
        65    1       15.239000000000       3.770674608000       8.342639506542
        66    1       15.238999976837       6.284457696545      10.640693866158
        67    1       21.770000023163       5.027566127455       0.749306133842
        68    1       19.593000000000       3.770674608000       3.047360493458
        69    1       19.592999976837       6.284457696545       4.545972879243
        70    1       21.770000023163       5.027566127455       6.844027120757
        71    1       19.593000000000       3.770674608000       8.342639506542
        72    1       19.592999976837       6.284457696545      10.640693866158
        73    1       -2.176999976837       8.798240735455       0.749306133842
        74    1       -4.354000000000       7.541349216000       3.047360493458
        75    1       -4.354000023163      10.055132304545       4.545972879243
        76    1       -2.176999976837       8.798240735455       6.844027120757
        77    1       -4.354000000000       7.541349216000       8.342639506542
        78    1       -4.354000023163      10.055132304545      10.640693866158
        79    1        2.177000023163       8.798240735455       0.749306133842
        80    1        0.000000000000       7.541349216000       3.047360493458
        81    1       -0.000000023163      10.055132304545       4.545972879243
        82    1        2.177000023163       8.798240735455       6.844027120757
        83    1        0.000000000000       7.541349216000       8.342639506542
        84    1       -0.000000023163      10.055132304545      10.640693866158
        85    1        6.531000023163       8.798240735455       0.749306133842
        86    1        4.354000000000       7.541349216000       3.047360493458
        87    1        4.353999976837      10.055132304545       4.545972879243
        88    1        6.531000023163       8.798240735455       6.844027120757
        89    1        4.354000000000       7.541349216000       8.342639506542
        90    1        4.353999976837      10.055132304545      10.640693866158
        91    1       10.885000023163       8.798240735455       0.749306133842
        92    1        8.708000000000       7.541349216000       3.047360493458
        93    1        8.707999976837      10.055132304545       4.545972879243
        94    1       10.885000023163       8.798240735455       6.844027120757
        95    1        8.708000000000       7.541349216000       8.342639506542
        96    1        8.707999976837      10.055132304545      10.640693866158
        97    1       15.239000023163       8.798240735455       0.749306133842
        98    1       13.062000000000       7.541349216000       3.047360493458
        99    1       13.061999976837      10.055132304545       4.545972879243
       100    1       15.239000023163       8.798240735455       6.844027120757
       101    1       13.062000000000       7.541349216000       8.342639506542
       102    1       13.061999976837      10.055132304545      10.640693866158
       103    1       19.593000023163       8.798240735455       0.749306133842
       104    1       17.416000000000       7.541349216000       3.047360493458
       105    1       17.415999976837      10.055132304545       4.545972879243
       106    1       19.593000023163       8.798240735455       6.844027120757
       107    1       17.416000000000       7.541349216000       8.342639506542
       108    1       17.415999976837      10.055132304545      10.640693866158
       109    1       -4.353999976837      12.568915343455       0.749306133842
       110    1       -6.531000000000      11.312023824000       3.047360493458
       111    1       -6.531000023163      13.825806912545       4.545972879243
       112    1       -4.353999976837      12.568915343455       6.844027120757
       113    1       -6.531000000000      11.312023824000       8.342639506542
       114    1       -6.531000023163      13.825806912545      10.640693866158
       115    1        0.000000023163      12.568915343455       0.749306133842
       116    1       -2.177000000000      11.312023824000       3.047360493458
       117    1       -2.177000023163      13.825806912545       4.545972879243
       118    1        0.000000023163      12.568915343455       6.844027120757
       119    1       -2.177000000000      11.312023824000       8.342639506542
       120    1       -2.177000023163      13.825806912545      10.640693866158
       121    1        4.354000023163      12.568915343455       0.749306133842
       122    1        2.177000000000      11.312023824000       3.047360493458
       123    1        2.176999976837      13.825806912545       4.545972879243
       124    1        4.354000023163      12.568915343455       6.844027120757
       125    1        2.177000000000      11.312023824000       8.342639506542
       126    1        2.176999976837      13.825806912545      10.640693866158
       127    1        8.708000023163      12.568915343455       0.749306133842
       128    1        6.531000000000      11.312023824000       3.047360493458
       129    1        6.530999976837      13.825806912545       4.545972879243
       130    1        8.708000023163      12.568915343455       6.844027120757
       131    1        6.531000000000      11.312023824000       8.342639506542
       132    1        6.530999976837      13.825806912545      10.640693866158
       133    1       13.062000023163      12.568915343455       0.749306133842
       134    1       10.885000000000      11.312023824000       3.047360493458
       135    1       10.884999976837      13.825806912545       4.545972879243
       136    1       13.062000023163      12.568915343455       6.844027120757
       137    1       10.885000000000      11.312023824000       8.342639506542
       138    1       10.884999976837      13.825806912545      10.640693866158
       139    1       17.416000023163      12.568915343455       0.749306133842
       140    1       15.239000000000      11.312023824000       3.047360493458
       141    1       15.238999976837      13.825806912545       4.545972879243
       142    1       17.416000023163      12.568915343455       6.844027120757
       143    1       15.239000000000      11.312023824000       8.342639506542
       144    1       15.238999976837      13.825806912545      10.640693866158
       145    1       -6.530999976837      16.339589951455       0.749306133842
       146    1       -8.708000000000      15.082698432000       3.047360493458
       147    1       -8.708000023163      17.596481520545       4.545972879243
       148    1       -6.530999976837      16.339589951455       6.844027120757
       149    1       -8.708000000000      15.082698432000       8.342639506542
       150    1       -8.708000023163      17.596481520545      10.640693866158
       151    1       -2.176999976837      16.339589951455       0.749306133842
       152    1       -4.354000000000      15.082698432000       3.047360493458
       153    1       -4.354000023163      17.596481520545       4.545972879243
       154    1       -2.176999976837      16.339589951455       6.844027120757
       155    1       -4.354000000000      15.082698432000       8.342639506542
       156    1       -4.354000023163      17.596481520545      10.640693866158
       157    1        2.177000023163      16.339589951455       0.749306133842
       158    1        0.000000000000      15.082698432000       3.047360493458
       159    1       -0.000000023163      17.596481520545       4.545972879243
       160    1        2.177000023163      16.339589951455       6.844027120757
       161    1        0.000000000000      15.082698432000       8.342639506542
       162    1       -0.000000023163      17.596481520545      10.640693866158
       163    1        6.531000023163      16.339589951455       0.749306133842
       164    1        4.354000000000      15.082698432000       3.047360493458
       165    1        4.353999976837      17.596481520545       4.545972879243
       166    1        6.531000023163      16.339589951455       6.844027120757
       167    1        4.354000000000      15.082698432000       8.342639506542
       168    1        4.353999976837      17.596481520545      10.640693866158
       169    1       10.885000023163      16.339589951455       0.749306133842
       170    1        8.708000000000      15.082698432000       3.047360493458
       171    1        8.707999976837      17.596481520545       4.545972879243
       172    1       10.885000023163      16.339589951455       6.844027120757
       173    1        8.708000000000      15.082698432000       8.342639506542
       174    1        8.707999976837      17.596481520545      10.640693866158
       175    1       15.239000023163      16.339589951455       0.749306133842
       176    1       13.062000000000      15.082698432000       3.047360493458
       177    1       13.061999976837      17.596481520545       4.545972879243
       178    1       15.239000023163      16.339589951455       6.844027120757
       179    1       13.062000000000      15.082698432000       8.342639506542
       180    1       13.061999976837      17.596481520545      10.640693866158
       181    1       -8.707999976837      20.110264559455       0.749306133842
       182    1      -10.885000000000      18.853373040000       3.047360493458
       183    1      -10.885000023163      21.367156128545       4.545972879243
       184    1       -8.707999976837      20.110264559455       6.844027120757
       185    1      -10.885000000000      18.853373040000       8.342639506542
       186    1      -10.885000023163      21.367156128545      10.640693866158
       187    1       -4.353999976837      20.110264559455       0.749306133842
       188    1       -6.531000000000      18.853373040000       3.047360493458
       189    1       -6.531000023163      21.367156128545       4.545972879243
       190    1       -4.353999976837      20.110264559455       6.844027120757
       191    1       -6.531000000000      18.853373040000       8.342639506542
       192    1       -6.531000023163      21.367156128545      10.640693866158
       193    1        0.000000023163      20.110264559455       0.749306133842
       194    1       -2.177000000000      18.853373040000       3.047360493458
       195    1       -2.177000023163      21.367156128545       4.545972879243
       196    1        0.000000023163      20.110264559455       6.844027120757
       197    1       -2.177000000000      18.853373040000       8.342639506542
       198    1       -2.177000023163      21.367156128545      10.640693866158
       199    1        4.354000023163      20.110264559455       0.749306133842
       200    1        2.177000000000      18.853373040000       3.047360493458
       201    1        2.176999976837      21.367156128545       4.545972879243
       202    1        4.354000023163      20.110264559455       6.844027120757
       203    1        2.177000000000      18.853373040000       8.342639506542
       204    1        2.176999976837      21.367156128545      10.640693866158
       205    1        8.708000023163      20.110264559455       0.749306133842
       206    1        6.531000000000      18.853373040000       3.047360493458
       207    1        6.530999976837      21.367156128545       4.545972879243
       208    1        8.708000023163      20.110264559455       6.844027120757
       209    1        6.531000000000      18.853373040000       8.342639506542
       210    1        6.530999976837      21.367156128545      10.640693866158
       211    1       13.062000023163      20.110264559455       0.749306133842
       212    1       10.885000000000      18.853373040000       3.047360493458
       213    1       10.884999976837      21.367156128545       4.545972879243
       214    1       13.062000023163      20.110264559455       6.844027120757
       215    1       10.885000000000      18.853373040000       8.342639506542
       216    1       10.884999976837      21.367156128545      10.640693866158
       217    1        2.177000023163       1.256891519455      12.139306133842
       218    1        0.000000000000       0.000000000000      14.437360493458
       219    1       -0.000000023163       2.513783088545      15.935972879243
       220    1        2.177000023163       1.256891519455      18.234027120757
       221    1        0.000000000000       0.000000000000      19.732639506542
       222    1       -0.000000023163       2.513783088545      22.030693866158
       223    1        6.531000023163       1.256891519455      12.139306133842
       224    1        4.354000000000       0.000000000000      14.437360493458
       225    1        4.353999976837       2.513783088545      15.935972879243
       226    1        6.531000023163       1.256891519455      18.234027120757
       227    1        4.354000000000       0.000000000000      19.732639506542
       228    1        4.353999976837       2.513783088545      22.030693866158
       229    1       10.885000023163       1.256891519455      12.139306133842
       230    1        8.708000000000       0.000000000000      14.437360493458
       231    1        8.707999976837       2.513783088545      15.935972879243
       232    1       10.885000023163       1.256891519455      18.234027120757
       233    1        8.708000000000       0.000000000000      19.732639506542
       234    1        8.707999976837       2.513783088545      22.030693866158
       235    1       15.239000023163       1.256891519455      12.139306133842
       236    1       13.062000000000       0.000000000000      14.437360493458
       237    1       13.061999976837       2.513783088545      15.935972879243
       238    1       15.239000023163       1.256891519455      18.234027120757
       239    1       13.062000000000       0.000000000000      19.732639506542
       240    1       13.061999976837       2.513783088545      22.030693866158
       241    1       19.593000023163       1.256891519455      12.139306133842
       242    1       17.416000000000       0.000000000000      14.437360493458
       243    1       17.415999976837       2.513783088545      15.935972879243
       244    1       19.593000023163       1.256891519455      18.234027120757
       245    1       17.416000000000       0.000000000000      19.732639506542
       246    1       17.415999976837       2.513783088545      22.030693866158
       247    1       23.947000023163       1.256891519455      12.139306133842
       248    1       21.770000000000       0.000000000000      14.437360493458
       249    1       21.769999976837       2.513783088545      15.935972879243
       250    1       23.947000023163       1.256891519455      18.234027120757
       251    1       21.770000000000       0.000000000000      19.732639506542
       252    1       21.769999976837       2.513783088545      22.030693866158
       253    1        0.000000023163       5.027566127455      12.139306133842
       254    1       -2.177000000000       3.770674608000      14.437360493458
       255    1       -2.177000023163       6.284457696545      15.935972879243
       256    1        0.000000023163       5.027566127455      18.234027120757
       257    1       -2.177000000000       3.770674608000      19.732639506542
       258    1       -2.177000023163       6.284457696545      22.030693866158
       259    1        4.354000023163       5.027566127455      12.139306133842
       260    1        2.177000000000       3.770674608000      14.437360493458
       261    1        2.176999976837       6.284457696545      15.935972879243
       262    1        4.354000023163       5.027566127455      18.234027120757
       263    1        2.177000000000       3.770674608000      19.732639506542
       264    1        2.176999976837       6.284457696545      22.030693866158
       265    1        8.708000023163       5.027566127455      12.139306133842
       266    1        6.531000000000       3.770674608000      14.437360493458
       267    1        6.530999976837       6.284457696545      15.935972879243
       268    1        8.708000023163       5.027566127455      18.234027120757
       269    1        6.531000000000       3.770674608000      19.732639506542
       270    1        6.530999976837       6.284457696545      22.030693866158
       271    1       13.062000023163       5.027566127455      12.139306133842
       272    1       10.885000000000       3.770674608000      14.437360493458
       273    1       10.884999976837       6.284457696545      15.935972879243
       274    1       13.062000023163       5.027566127455      18.234027120757
       275    1       10.885000000000       3.770674608000      19.732639506542
       276    1       10.884999976837       6.284457696545      22.030693866158
       277    1       17.416000023163       5.027566127455      12.139306133842
       278    1       15.239000000000       3.770674608000      14.437360493458
       279    1       15.238999976837       6.284457696545      15.935972879243
       280    1       17.416000023163       5.027566127455      18.234027120757
       281    1       15.239000000000       3.770674608000      19.732639506542
       282    1       15.238999976837       6.284457696545      22.030693866158
       283    1       21.770000023163       5.027566127455      12.139306133842
       284    1       19.593000000000       3.770674608000      14.437360493458
       285    1       19.592999976837       6.284457696545      15.935972879243
       286    1       21.770000023163       5.027566127455      18.234027120757
       287    1       19.593000000000       3.770674608000      19.732639506542
       288    1       19.592999976837       6.284457696545      22.030693866158
       289    1       -2.176999976837       8.798240735455      12.139306133842
       290    1       -4.354000000000       7.541349216000      14.437360493458
       291    1       -4.354000023163      10.055132304545      15.935972879243
       292    1       -2.176999976837       8.798240735455      18.234027120757
       293    1       -4.354000000000       7.541349216000      19.732639506542
       294    1       -4.354000023163      10.055132304545      22.030693866158
       295    1        2.177000023163       8.798240735455      12.139306133842
       296    1        0.000000000000       7.541349216000      14.437360493458
       297    1       -0.000000023163      10.055132304545      15.935972879243
       298    1        2.177000023163       8.798240735455      18.234027120757
       299    1        0.000000000000       7.541349216000      19.732639506542
       300    1       -0.000000023163      10.055132304545      22.030693866158
       301    1        6.531000023163       8.798240735455      12.139306133842
       302    1        4.354000000000       7.541349216000      14.437360493458
       303    1        4.353999976837      10.055132304545      15.935972879243
       304    1        6.531000023163       8.798240735455      18.234027120757
       305    1        4.354000000000       7.541349216000      19.732639506542
       306    1        4.353999976837      10.055132304545      22.030693866158
       307    1       10.885000023163       8.798240735455      12.139306133842
       308    1        8.708000000000       7.541349216000      14.437360493458
       309    1        8.707999976837      10.055132304545      15.935972879243
       310    1       10.885000023163       8.798240735455      18.234027120757
       311    1        8.708000000000       7.541349216000      19.732639506542
       312    1        8.707999976837      10.055132304545      22.030693866158
       313    1       15.239000023163       8.798240735455      12.139306133842
       314    1       13.062000000000       7.541349216000      14.437360493458
       315    1       13.061999976837      10.055132304545      15.935972879243
       316    1       15.239000023163       8.798240735455      18.234027120757
       317    1       13.062000000000       7.541349216000      19.732639506542
       318    1       13.061999976837      10.055132304545      22.030693866158
       319    1       19.593000023163       8.798240735455      12.139306133842
       320    1       17.416000000000       7.541349216000      14.437360493458
       321    1       17.415999976837      10.055132304545      15.935972879243
       322    1       19.593000023163       8.798240735455      18.234027120757
       323    1       17.416000000000       7.541349216000      19.732639506542
       324    1       17.415999976837      10.055132304545      22.030693866158
       325    1       -4.353999976837      12.568915343455      12.139306133842
       326    1       -6.531000000000      11.312023824000      14.437360493458
       327    1       -6.531000023163      13.825806912545      15.935972879243
       328    1       -4.353999976837      12.568915343455      18.234027120757
       329    1       -6.531000000000      11.312023824000      19.732639506542
       330    1       -6.531000023163      13.825806912545      22.030693866158
       331    1        0.000000023163      12.568915343455      12.139306133842
       332    1       -2.177000000000      11.312023824000      14.437360493458
       333    1       -2.177000023163      13.825806912545      15.935972879243
       334    1        0.000000023163      12.568915343455      18.234027120757
       335    1       -2.177000000000      11.312023824000      19.732639506542
       336    1       -2.177000023163      13.825806912545      22.030693866158
       337    1        4.354000023163      12.568915343455      12.139306133842
       338    1        2.177000000000      11.312023824000      14.437360493458
       339    1        2.176999976837      13.825806912545      15.935972879243
       340    1        4.354000023163      12.568915343455      18.234027120757
       341    1        2.177000000000      11.312023824000      19.732639506542
       342    1        2.176999976837      13.825806912545      22.030693866158
       343    1        8.708000023163      12.568915343455      12.139306133842
       344    1        6.531000000000      11.312023824000      14.437360493458
       345    1        6.530999976837      13.825806912545      15.935972879243
       346    1        8.708000023163      12.568915343455      18.234027120757
       347    1        6.531000000000      11.312023824000      19.732639506542
       348    1        6.530999976837      13.825806912545      22.030693866158
       349    1       13.062000023163      12.568915343455      12.139306133842
       350    1       10.885000000000      11.312023824000      14.437360493458
       351    1       10.884999976837      13.825806912545      15.935972879243
       352    1       13.062000023163      12.568915343455      18.234027120757
       353    1       10.885000000000      11.312023824000      19.732639506542
       354    1       10.884999976837      13.825806912545      22.030693866158
       355    1       17.416000023163      12.568915343455      12.139306133842
       356    1       15.239000000000      11.312023824000      14.437360493458
       357    1       15.238999976837      13.825806912545      15.935972879243
       358    1       17.416000023163      12.568915343455      18.234027120757
       359    1       15.239000000000      11.312023824000      19.732639506542
       360    1       15.238999976837      13.825806912545      22.030693866158
       361    1       -6.530999976837      16.339589951455      12.139306133842
       362    1       -8.708000000000      15.082698432000      14.437360493458
       363    1       -8.708000023163      17.596481520545      15.935972879243
       364    1       -6.530999976837      16.339589951455      18.234027120757
       365    1       -8.708000000000      15.082698432000      19.732639506542
       366    1       -8.708000023163      17.596481520545      22.030693866158
       367    1       -2.176999976837      16.339589951455      12.139306133842
       368    1       -4.354000000000      15.082698432000      14.437360493458
       369    1       -4.354000023163      17.596481520545      15.935972879243
       370    1       -2.176999976837      16.339589951455      18.234027120757