LAMMPS (23 Jun 2022 - Update 1)
OMP_NUM_THREADS environment is not set. Defaulting to 1 thread. (src/comm.cpp:98)
  using 1 OpenMP thread(s) per MPI task
Loaded 1 plugins from /opt/deepmd-kit-2.2.1/lib/deepmd_lmp


units           metal
boundary        p p p
atom_style      atomic

neighbor        2.0 bin
neigh_modify    every 10 delay 0 check no

read_data       coord.lmp
Reading data file ...
  triclinic box = (0 0 0) to (26.124 22.624048 22.78) with tilt (-13.062 0 0)
  1 by 1 by 1 MPI processor grid
  reading atoms ...
  432 atoms
  read_data CPU = 0.005 seconds

pair_style	deepmd	./graph.pb
Summary of lammps deepmd module ...
  >>> Info of deepmd-kit:
  installed to:       /opt/deepmd-kit-2.2.1
  source:             v2.2.1
  source branch:       HEAD
  source commit:      3ac8c4c7
  source commit at:   2023-03-16 12:33:24 +0800
  surpport model ver.:1.1 
  build variant:      cuda
  build with tf inc:  /opt/deepmd-kit-2.2.1/include;/opt/deepmd-kit-2.2.1/include
  build with tf lib:  /opt/deepmd-kit-2.2.1/lib/libtensorflow_cc.so
  set tf intra_op_parallelism_threads: 0
  set tf inter_op_parallelism_threads: 0
  >>> Info of lammps module:
  use deepmd-kit at:  /opt/deepmd-kit-2.2.1pair_coeff      * *

variable	run1	equal	60000
variable	run2	equal	60000
variable	run3	equal	120000
variable	run4	equal	60000
variable	run5	equal	180000
variable	run6	equal	2000000

variable	temp1	equal	300.0
variable	temp2	equal	1500.0
variable	temp3	equal	600.0

variable	dt	equal	5.0e-4
variable	tau	equal	${dt}*100
variable	tau	equal	0.0005*100
variable	showt	equal	1000


velocity	all create ${temp1} 12345
velocity	all create 300 12345
dump            1 all custom ${showt} lammps.dump id type x y z
dump            1 all custom 1000 lammps.dump id type x y z

fix             1 all nvt temp ${temp1} ${temp2} ${tau}
fix             1 all nvt temp 300 ${temp2} ${tau}
fix             1 all nvt temp 300 1500 ${tau}
fix             1 all nvt temp 300 1500 0.05
timestep        ${dt}
timestep        0.0005
thermo_style    custom step pe ke etotal temp press vol
thermo         	${showt}
thermo         	1000
run     	${run1}
run     	60000

CITE-CITE-CITE-CITE-CITE-CITE-CITE-CITE-CITE-CITE-CITE-CITE-CITE

Your simulation uses code contributions which should be cited:

- USER-DEEPMD package:

@article{Wang_ComputPhysCommun_2018_v228_p178,
  author = {Wang, Han and Zhang, Linfeng and Han, Jiequn and E, Weinan},
  doi = {10.1016/j.cpc.2018.03.016},
  url = {https://doi.org/10.1016/j.cpc.2018.03.016},
  year = 2018,
  month = {jul},
  publisher = {Elsevier {BV}},
  volume = 228,
  journal = {Comput. Phys. Commun.},
  title = {{DeePMD-kit: A deep learning package for many-body potential energy representation and molecular dynamics}},
  pages = {178--184}
}

CITE-CITE-CITE-CITE-CITE-CITE-CITE-CITE-CITE-CITE-CITE-CITE-CITE

Generated 0 of 0 mixed pair_coeff terms from geometric mixing rule
Neighbor list info ...
  update every 10 steps, delay 0 steps, check no
  max neighbors/atom: 2000, page size: 100000
  master list distance cutoff = 10
  ghost atom cutoff = 10
  binsize = 5, bins = 8 5 5
  1 neighbor lists, perpetual/occasional/extra = 1 0 0
  (1) pair deepmd, perpetual
      attributes: full, newton on
      pair build: full/bin/atomonly
      stencil: full/bin/3d
      bin: standard
Per MPI rank memory allocation (min/avg/max) = 3.917 | 3.917 | 3.917 Mbytes
   Step         PotEng         KinEng         TotEng          Temp          Press          Volume    
         0  -65024.424      16.713337     -65007.71       300            22267.748      13463.678    
      1000  -65004.443      19.90298      -64984.54       357.25326      26530.481      13463.678    
      2000  -65004.49       18.912784     -64985.577      339.4795       24744.978      13463.678    
      3000  -65003.313      20.131739     -64983.182      361.35942      19175.581      13463.678    
      4000  -65002.105      20.35471      -64981.751      365.36169      17303.689      13463.678    
      5000  -65000.004      21.163713     -64978.84       379.88308      19338.74       13463.678    
      6000  -64999.181      25.144909     -64974.036      451.3445       22263.156      13463.678    
      7000  -64997.981      26.659955     -64971.322      478.53919      22261.004      13463.678    
      8000  -64995.302      24.507281     -64970.795      439.89924      20261.038      13463.678    
      9000  -64995.323      27.705263     -64967.618      497.30219      21680.917      13463.678    
     10000  -64993.417      28.020201     -64965.397      502.95524      22887.149      13463.678    
     11000  -64991.509      29.631251     -64961.878      531.87316      22378.157      13463.678    
     12000  -64989.362      29.444893     -64959.917      528.5281       20963.959      13463.678    
     13000  -64985.804      30.04968      -64955.755      539.38385      23340.212      13463.678    
     14000  -64983.648      30.004656     -64953.643      538.57568      19655.603      13463.678    
     15000  -64984.87       31.989798     -64952.881      574.20846      21334.972      13463.678    
     16000  -64981.509      35.245912     -64946.263      632.65486      20768.242      13463.678    
     17000  -64983.824      36.083622     -64947.741      647.69153      22482.033      13463.678    
     18000  -64981.206      35.073575     -64946.132      629.56145      19436.46       13463.678    
     19000  -64977.027      39.975572     -64937.051      717.55101      21044.13       13463.678    
     20000  -64977.193      40.45119      -64936.742      726.08822      22501.575      13463.678    
     21000  -64969.335      40.840285     -64928.495      733.07237      19944.761      13463.678    
     22000  -64968.791      39.672173     -64929.119      712.10507      20220.549      13463.678    
     23000  -64968.253      40.396712     -64927.856      725.11036      23129.191      13463.678    
     24000  -64964.391      41.114325     -64923.277      737.99132      19210.763      13463.678    
     25000  -64966.783      44.333348     -64922.45       795.77195      18389.157      13463.678    
     26000  -64960.383      46.999746     -64913.383      843.63308      17428.619      13463.678    
     27000  -64958.62       50.061224     -64908.558      898.5858       18085.215      13463.678    
     28000  -64955.352      45.698125     -64909.654      820.26933      20502.248      13463.678    
     29000  -64953.564      48.923213     -64904.641      878.15882      21065.503      13463.678    
     30000  -64956.327      47.86374      -64908.463      859.14155      19632.242      13463.678    
     31000  -64948.338      54.073585     -64894.265      970.60663      22741.604      13463.678    
     32000  -64948.344      54.919402     -64893.425      985.78882      21996.693      13463.678    
     33000  -64946.208      56.927976     -64889.28       1021.8422      24187.104      13463.678    
     34000  -64950.902      58.68115      -64892.221      1053.3112      22993.324      13463.678    
     35000  -64939.421      56.867001     -64882.554      1020.7477      24828.525      13463.678    
     36000  -64941.187      52.888235     -64888.299      949.32992      24379.872      13463.678    
     37000  -64939.124      59.646227     -64879.478      1070.6341      26753.527      13463.678    
     38000  -64941.699      56.876223     -64884.823      1020.9133      23089.774      13463.678    
     39000  -64930.687      58.443713     -64872.244      1049.0493      27172.29       13463.678    
     40000  -64931.253      60.456895     -64870.796      1085.1854      28433.113      13463.678    
     41000  -64927.852      59.788831     -64868.063      1073.1938      28657.539      13463.678    
     42000  -64923.038      58.828022     -64864.21       1055.9475      27316.956      13463.678    
     43000  -64914.796      64.823623     -64849.973      1163.567       28142.708      13463.678    
     44000  -64903.554      64.450352     -64839.104      1156.8669      26750.304      13463.678    
     45000  -64878.323      71.860953     -64806.462      1289.8852      32686.933      13463.678    
     46000  -64872.407      67.587069     -64804.82       1213.1701      31778.603      13463.678    
     47000  -64870.541      68.348554     -64802.193      1226.8386      31274.156      13463.678    
     48000  -64863.345      71.436287     -64791.908      1282.2626      32037.18       13463.678    
     49000  -64863.745      70.268072     -64793.477      1261.2934      31757.158      13463.678    
     50000  -64863.498      68.362836     -64795.135      1227.0949      33577.244      13463.678    
     51000  -64857.659      67.169932     -64790.489      1205.6826      36712.13       13463.678    
     52000  -64863.224      74.066543     -64789.158      1329.475       33572.897      13463.678    
     53000  -64861.227      76.355871     -64784.871      1370.5678      31158.607      13463.678    
     54000  -64858.907      80.115156     -64778.792      1438.046       35647.34       13463.678    
     55000  -64865.144      77.281056     -64787.863      1387.1746      32709.416      13463.678    
     56000  -64856.337      76.082303     -64780.255      1365.6573      34853.863      13463.678    
     57000  -64853.776      77.025085     -64776.751      1382.58        39759.201      13463.678    
     58000  -64859.175      85.426014     -64773.749      1533.3745      36955.472      13463.678    
     59000  -64858.648      82.61906      -64776.029      1482.9904      36586.284      13463.678    
     60000  -64854.064      81.407273     -64772.657      1461.2392      38148.402      13463.678    
Loop time of 216.447 on 1 procs for 60000 steps with 432 atoms

Performance: 11.975 ns/day, 2.004 hours/ns, 277.204 timesteps/s
100.0% CPU use with 1 MPI tasks x 1 OpenMP threads

MPI task timing breakdown:
Section |  min time  |  avg time  |  max time  |%varavg| %total
---------------------------------------------------------------
Pair    | 197.91     | 197.91     | 197.91     |   0.0 | 91.44
Neigh   | 16.714     | 16.714     | 16.714     |   0.0 |  7.72
Comm    | 1.0142     | 1.0142     | 1.0142     |   0.0 |  0.47
Output  | 0.050704   | 0.050704   | 0.050704   |   0.0 |  0.02
Modify  | 0.60811    | 0.60811    | 0.60811    |   0.0 |  0.28
Other   |            | 0.1461     |            |       |  0.07

Nlocal:            432 ave         432 max         432 min
Histogram: 1 0 0 0 0 0 0 0 0 0
Nghost:           2445 ave        2445 max        2445 min
Histogram: 1 0 0 0 0 0 0 0 0 0
Neighs:              0 ave           0 max           0 min
Histogram: 1 0 0 0 0 0 0 0 0 0
FullNghs:        57910 ave       57910 max       57910 min
Histogram: 1 0 0 0 0 0 0 0 0 0

Total # of neighbors = 57910
Ave neighs/atom = 134.05093
Neighbor list builds = 6000
Dangerous builds not checked
write_restart   nvt1.restart
System init for write_restart ...
Generated 0 of 0 mixed pair_coeff terms from geometric mixing rule
unfix           1


fix             2 all nvt temp ${temp2} ${temp2} ${tau}
fix             2 all nvt temp 1500 ${temp2} ${tau}
fix             2 all nvt temp 1500 1500 ${tau}
fix             2 all nvt temp 1500 1500 0.05
timestep        ${dt}
timestep        0.0005
thermo_style    custom step pe ke etotal temp press vol
thermo         	${showt}
thermo         	1000
run     	${run2}
run     	60000
Generated 0 of 0 mixed pair_coeff terms from geometric mixing rule
Per MPI rank memory allocation (min/avg/max) = 3.919 | 3.919 | 3.919 Mbytes
   Step         PotEng         KinEng         TotEng          Temp          Press          Volume    
     60000  -64854.064      81.407273     -64772.657      1461.2392      38148.402      13463.678    
     61000  -64861.15       86.121691     -64775.029      1545.8617      33834.165      13463.678    
     62000  -64854.724      83.759014     -64770.965      1503.4523      38702.802      13463.678    
     63000  -64856.926      80.004346     -64776.922      1436.057       37508.497      13463.678    
     64000  -64858.627      78.421409     -64780.205      1407.6437      36599.42       13463.678    
     65000  -64854.262      80.601063     -64773.661      1446.7679      38977.968      13463.678    
     66000  -64859.022      85.311016     -64773.711      1531.3103      39123.306      13463.678    
     67000  -64858.409      83.637065     -64774.772      1501.2633      38032.878      13463.678    
     68000  -64858.838      80.052609     -64778.786      1436.9233      34927.159      13463.678    
     69000  -64856.393      76.416891     -64779.976      1371.6631      36173.46       13463.678    
     70000  -64854.128      85.510291     -64768.618      1534.8872      37645.024      13463.678    
     71000  -64858.008      85.819388     -64772.189      1540.4354      36741.845      13463.678    
     72000  -64850.728      81.46579      -64769.262      1462.2895      40346.948      13463.678    
     73000  -64853.865      80.736471     -64773.129      1449.1984      39854.115      13463.678    
     74000  -64858.347      90.733762     -64767.613      1628.6472      36844.112      13463.678    
     75000  -64855.412      82.959084     -64772.453      1489.0937      39749.294      13463.678    
     76000  -64852.967      83.480174     -64769.487      1498.4472      39587.559      13463.678    
     77000  -64855.897      82.449886     -64773.448      1479.9538      38196.881      13463.678    
     78000  -64856.832      82.474435     -64774.358      1480.3944      36694.99       13463.678    
     79000  -64852.85       87.05011      -64765.8        1562.5266      39734.188      13463.678    
     80000  -64853.583      80.916185     -64772.667      1452.4242      39012.321      13463.678    
     81000  -64853.737      84.423601     -64769.314      1515.3814      38567.902      13463.678    
     82000  -64858.603      84.062466     -64774.541      1508.8992      36842.766      13463.678    
     83000  -64855.23       84.786095     -64770.444      1521.8881      37936.33       13463.678    
     84000  -64858.218      86.845416     -64771.373      1558.8524      38723.609      13463.678    
     85000  -64857.522      83.42056      -64774.102      1497.3771      35568.309      13463.678    
     86000  -64860.96       87.422307     -64773.538      1569.2074      35202.46       13463.678    
     87000  -64858.745      83.745252     -64775          1503.2053      36468.944      13463.678    
     88000  -64843.674      80.130833     -64763.543      1438.3274      44238.491      13463.678    
     89000  -64854.45       81.183079     -64773.267      1457.2149      37395.553      13463.678    
     90000  -64858.612      82.873572     -64775.738      1487.5588      33942.311      13463.678    
     91000  -64854.081      83.639276     -64770.442      1501.303       37906.848      13463.678    
     92000  -64857.647      85.503055     -64772.144      1534.7574      37083.521      13463.678    
     93000  -64850.12       86.928982     -64763.191      1560.3524      41313.879      13463.678    
     94000  -64853.472      84.607509     -64768.865      1518.6825      38171.878      13463.678    
     95000  -64851.552      86.025002     -64765.527      1544.1262      37673.462      13463.678    
     96000  -64854.984      83.774164     -64771.21       1503.7242      37059.982      13463.678    
     97000  -64855.609      85.806618     -64769.803      1540.2062      36922.28       13463.678    
     98000  -64852.675      83.256418     -64769.418      1494.4308      38558.006      13463.678    
     99000  -64852.222      77.708471     -64774.513      1394.8466      38729.073      13463.678    
    100000  -64857.24       79.336893     -64777.904      1424.0764      35858.571      13463.678    
    101000  -64857.749      82.189642     -64775.559      1475.2825      36942.749      13463.678    
    102000  -64855.281      80.749664     -64774.531      1449.4352      37563.848      13463.678    
    103000  -64859.467      77.267334     -64782.2        1386.9283      36276.976      13463.678    
    104000  -64855.837      87.780292     -64768.057      1575.6332      38801.531      13463.678    
    105000  -64854.161      83.971349     -64770.19       1507.2636      41656.59       13463.678    
    106000  -64856.105      86.966559     -64769.138      1561.0269      36988.785      13463.678    
    107000  -64858.431      81.573468     -64776.857      1464.2223      37151.975      13463.678    
    108000  -64855.758      85.047496     -64770.711      1526.5802      38673.236      13463.678    
    109000  -64864.285      81.546        -64782.739      1463.7293      33414.011      13463.678    
    110000  -64855.051      87.369306     -64767.682      1568.2561      36302.598      13463.678    
    111000  -64854.701      89.130635     -64765.57       1599.8715      40012.938      13463.678    
    112000  -64859.179      82.286591     -64776.892      1477.0227      36670.699      13463.678    
    113000  -64861.248      82.995173     -64778.253      1489.7415      35355.111      13463.678    
    114000  -64854.935      86.121435     -64768.814      1545.8571      38377.649      13463.678    
    115000  -64856.167      77.654649     -64778.513      1393.8805      37148.369      13463.678    
    116000  -64855.114      85.331396     -64769.782      1531.6761      38135.94       13463.678    
    117000  -64859.768      83.623835     -64776.145      1501.0258      35751.242      13463.678    
    118000  -64859.298      81.893983     -64777.404      1469.9755      37066.62       13463.678    
    119000  -64859.239      80.788014     -64778.451      1450.1236      36366.371      13463.678    
    120000  -64854.674      87.685211     -64766.988      1573.9265      37278.157      13463.678    
Loop time of 217.197 on 1 procs for 60000 steps with 432 atoms

Performance: 11.934 ns/day, 2.011 hours/ns, 276.247 timesteps/s
100.0% CPU use with 1 MPI tasks x 1 OpenMP threads

MPI task timing breakdown:
Section |  min time  |  avg time  |  max time  |%varavg| %total
---------------------------------------------------------------
Pair    | 197.69     | 197.69     | 197.69     |   0.0 | 91.02
Neigh   | 17.512     | 17.512     | 17.512     |   0.0 |  8.06
Comm    | 1.1967     | 1.1967     | 1.1967     |   0.0 |  0.55
Output  | 0.050204   | 0.050204   | 0.050204   |   0.0 |  0.02
Modify  | 0.59962    | 0.59962    | 0.59962    |   0.0 |  0.28
Other   |            | 0.1448     |            |       |  0.07

Nlocal:            432 ave         432 max         432 min
Histogram: 1 0 0 0 0 0 0 0 0 0
Nghost:           2427 ave        2427 max        2427 min
Histogram: 1 0 0 0 0 0 0 0 0 0
Neighs:              0 ave           0 max           0 min
Histogram: 1 0 0 0 0 0 0 0 0 0
FullNghs:        57850 ave       57850 max       57850 min
Histogram: 1 0 0 0 0 0 0 0 0 0

Total # of neighbors = 57850
Ave neighs/atom = 133.91204
Neighbor list builds = 6000
Dangerous builds not checked
write_restart   nvt2.restart
System init for write_restart ...
Generated 0 of 0 mixed pair_coeff terms from geometric mixing rule
unfix           2


fix             3 all nvt temp ${temp2} ${temp1} ${tau}
fix             3 all nvt temp 1500 ${temp1} ${tau}
fix             3 all nvt temp 1500 300 ${tau}
fix             3 all nvt temp 1500 300 0.05
timestep        ${dt}
timestep        0.0005
thermo_style    custom step pe ke etotal temp press vol
thermo         	${showt}
thermo         	1000
run     	${run3}
run     	120000
Generated 0 of 0 mixed pair_coeff terms from geometric mixing rule
Per MPI rank memory allocation (min/avg/max) = 3.919 | 3.919 | 3.919 Mbytes
   Step         PotEng         KinEng         TotEng          Temp          Press          Volume    
    120000  -64854.674      87.685211     -64766.988      1573.9265      37278.157      13463.678    
    121000  -64856.803      78.797137     -64778.006      1414.3879      37043.161      13463.678    
    122000  -64854.841      78.275999     -64776.565      1405.0336      38301.435      13463.678    
    123000  -64850.622      81.450383     -64769.172      1462.013       40932.73       13463.678    
    124000  -64856.336      81.102056     -64775.234      1455.7606      35184.755      13463.678    
    125000  -64857.54       83.327268     -64774.213      1495.7026      35918.798      13463.678    
    126000  -64860.565      82.183201     -64778.381      1475.1669      34410.795      13463.678    
    127000  -64861.341      82.518799     -64778.822      1481.1907      33020.954      13463.678    
    128000  -64858.372      76.756669     -64781.615      1377.762       36419.727      13463.678    
    129000  -64862.532      82.05774      -64780.474      1472.9148      35549.06       13463.678    
    130000  -64857.176      80.179945     -64776.996      1439.2089      36056.07       13463.678    
    131000  -64860.275      78.921007     -64781.354      1416.6113      36230.158      13463.678    
    132000  -64856.337      81.856284     -64774.48       1469.2988      35319.866      13463.678    
    133000  -64863.868      74.156346     -64789.712      1331.0869      33994.21       13463.678    
    134000  -64857.925      73.348243     -64784.577      1316.5817      37222.228      13463.678    
    135000  -64864.937      80.413531     -64784.523      1443.4017      33081.507      13463.678    
    136000  -64861.687      71.21601      -64790.471      1278.3087      33558.733      13463.678    
    137000  -64860.196      70.984325     -64789.212      1274.15        34141.572      13463.678    
    138000  -64858.51       71.459561     -64787.051      1282.6803      35080.452      13463.678    
    139000  -64862.253      68.940064     -64793.313      1237.456       33954.545      13463.678    
    140000  -64863.892      72.741695     -64791.151      1305.6943      32873.729      13463.678    
    141000  -64859.848      70.732281     -64789.116      1269.6259      35165.902      13463.678    
    142000  -64862.396      72.389243     -64790.007      1299.3679      32525.069      13463.678    
    143000  -64866.728      68.478778     -64798.249      1229.1761      29798.984      13463.678    
    144000  -64864.497      72.634452     -64791.863      1303.7693      33560.508      13463.678    
    145000  -64865.723      71.984625     -64793.738      1292.1051      29232.016      13463.678    
    146000  -64869.841      72.752597     -64797.088      1305.89        30161.196      13463.678    
    147000  -64863.036      67.915633     -64795.121      1219.0678      32455.781      13463.678    
    148000  -64865.084      65.513844     -64799.57       1175.9563      29866.69       13463.678    
    149000  -64865.672      69.403216     -64796.269      1245.7695      31961.586      13463.678    
    150000  -64866.631      65.742301     -64800.889      1180.057       30855.793      13463.678    
    151000  -64866.026      70.632607     -64795.393      1267.8367      31809.792      13463.678    
    152000  -64867.361      64.964141     -64802.397      1166.0892      29000.073      13463.678    
    153000  -64873.34       67.675822     -64805.664      1214.7632      29607.881      13463.678    
    154000  -64866.011      62.862753     -64803.148      1128.3699      32415.856      13463.678    
    155000  -64867.675      65.67762      -64801.997      1178.896       30161.333      13463.678    
    156000  -64874.317      66.126084     -64808.191      1186.9458      27714.934      13463.678    
    157000  -64868.644      60.169718     -64808.474      1080.0306      29381.953      13463.678    
    158000  -64874.496      65.669411     -64808.826      1178.7487      26975.029      13463.678    
    159000  -64875.716      57.94534      -64817.771      1040.1036      26435.088      13463.678    
    160000  -64875.429      59.398197     -64816.031      1066.182       27217.836      13463.678    
    161000  -64873.864      59.623597     -64814.241      1070.2279      28907.861      13463.678    
    162000  -64870.95       58.036731     -64812.914      1041.7441      31160.215      13463.678    
    163000  -64869.652      58.420679     -64811.231      1048.6358      30359.89       13463.678    
    164000  -64870.492      59.111209     -64811.381      1061.0307      28587.906      13463.678    
    165000  -64875.024      58.452921     -64816.571      1049.2146      26852.415      13463.678    
    166000  -64875.941      59.199829     -64816.741      1062.6214      28484.966      13463.678    
    167000  -64879.208      58.926829     -64820.281      1057.7211      23097.846      13463.678    
    168000  -64875.663      57.072258     -64818.59       1024.432       23984.618      13463.678    
    169000  -64875.282      56.889362     -64818.392      1021.1491      26835.476      13463.678    
    170000  -64876.356      59.296155     -64817.06       1064.3504      24099.678      13463.678    
    171000  -64880.708      54.286146     -64826.422      974.42205      24579.969      13463.678    
    172000  -64877.614      49.709956     -64827.904      892.28064      25299.627      13463.678    
    173000  -64878.982      54.583734     -64824.398      979.76368      25474.883      13463.678    
    174000  -64877.063      54.615891     -64822.447      980.34089      24494.173      13463.678    
    175000  -64880.512      53.561325     -64826.95       961.4117       23984.151      13463.678    
    176000  -64876.282      49.789837     -64826.492      893.71449      28003.456      13463.678    
    177000  -64881.014      50.470341     -64830.543      905.92935      24097.82       13463.678    
    178000  -64882.796      50.256774     -64832.539      902.09588      24859.859      13463.678    
    179000  -64883.884      53.975948     -64829.908      968.85407      23459.238      13463.678    
    180000  -64882.807      49.566109     -64833.241      889.69863      24353.065      13463.678    
    181000  -64885.284      51.621597     -64833.662      926.5941       22326.763      13463.678    
    182000  -64883.135      53.330426     -64829.805      957.26712      24108.572      13463.678    
    183000  -64886.264      46.178732     -64840.085      828.8961       21303.817      13463.678    
    184000  -64883.947      44.112246     -64839.834      791.80321      21331.782      13463.678    
    185000  -64888.683      47.012193     -64841.67       843.8565       23131.449      13463.678    
    186000  -64885.206      44.981217     -64840.224      807.40101      23161.803      13463.678    
    187000  -64886.38       45.71518      -64840.665      820.57546      21550.816      13463.678    
    188000  -64890.257      43.829823     -64846.428      786.7338       21399.428      13463.678    
    189000  -64891.588      45.713777     -64845.874      820.55027      22112.258      13463.678    
    190000  -64892.527      45.297266     -64847.23       813.07402      19835.469      13463.678    
    191000  -64894.775      44.029229     -64850.745      790.31308      20610.36       13463.678    
    192000  -64892.087      42.851714     -64849.236      769.177        20390.339      13463.678    
    193000  -64889.314      40.366476     -64848.947      724.56764      22170.653      13463.678    
    194000  -64891.694      41.686717     -64850.008      748.2656       20841.954      13463.678    
    195000  -64889.435      42.41366      -64847.021      761.31405      20916.1        13463.678    
    196000  -64891.034      43.655575     -64847.378      783.60609      20685.65       13463.678    
    197000  -64896.978      40.888814     -64856.089      733.94346      18620.713      13463.678    
    198000  -64900.049      39.919231     -64860.129      716.5397       17764.287      13463.678    
    199000  -64896.569      37.478017     -64859.091      672.72054      17760.855      13463.678    
    200000  -64897.166      40.942302     -64856.224      734.90355      19254.475      13463.678    
    201000  -64898.294      38.18653      -64860.107      685.43817      19619.142      13463.678    
    202000  -64903.878      37.765862     -64866.113      677.8873       21476.728      13463.678    
    203000  -64901.406      37.538795     -64863.867      673.8115       19412.086      13463.678    
    204000  -64903.642      35.650473     -64867.992      639.91661      18960.271      13463.678    
    205000  -64904.858      34.890584     -64869.968      626.2768       17619.262      13463.678    
    206000  -64905.212      35.896597     -64869.315      644.33447      16286.256      13463.678    
    207000  -64908.415      35.597984     -64872.817      638.97445      17620.987      13463.678    
    208000  -64907.468      35.310733     -64872.157      633.81838      19568.813      13463.678    
    209000  -64914.795      33.155475     -64881.64       595.13205      17726.592      13463.678    
    210000  -64912.718      32.652774     -64880.065      586.10871      18319.4        13463.678    
    211000  -64917.035      33.624254     -64883.411      603.54651      18000.766      13463.678    
    212000  -64920.854      31.832655     -64889.021      571.38778      17758.989      13463.678    
    213000  -64918.447      32.300496     -64886.147      579.78541      19082.551      13463.678    
    214000  -64920.896      30.803131     -64890.093      552.9081       17963.437      13463.678    
    215000  -64925.602      30.574238     -64895.028      548.79953      16480.568      13463.678    
    216000  -64924.206      27.271947     -64896.934      489.52427      17163.06       13463.678    
    217000  -64925.39       30.631892     -64894.758      549.83441      18402.402      13463.678    
    218000  -64929.538      26.404588     -64903.133      473.95541      16886.215      13463.678    
    219000  -64929.122      28.747466     -64900.375      516.00946      18213.482      13463.678    
    220000  -64928.432      26.928954     -64901.503      483.36764      18038.754      13463.678    
    221000  -64931.207      25.992993     -64905.214      466.56739      17086.479      13463.678    
    222000  -64932.787      26.184989     -64906.602      470.01366      16380.68       13463.678    
    223000  -64934.235      26.018132     -64908.217      467.01862      19163.173      13463.678    
    224000  -64935.865      25.787923     -64910.077      462.88643      18235.225      13463.678    
    225000  -64934.707      24.277505     -64910.429      435.77484      18069.512      13463.678    
    226000  -64937.397      24.726356     -64912.671      443.83159      18087.293      13463.678    
    227000  -64936.282      23.821552     -64912.46       427.5906       17658.276      13463.678    
    228000  -64937.699      21.969958     -64915.729      394.35497      17477.382      13463.678    
    229000  -64939.712      22.35431      -64917.357      401.25398      17657.996      13463.678    
    230000  -64940.187      22.113941     -64918.073      396.93942      17656.407      13463.678    
    231000  -64942.042      21.935333     -64920.107      393.73345      16752.841      13463.678    
    232000  -64942.763      19.977448     -64922.786      358.58994      17901.895      13463.678    
    233000  -64942.055      20.962928     -64921.092      376.27904      17015.007      13463.678    
    234000  -64944.501      19.745442     -64924.756      354.42548      17246.776      13463.678    
    235000  -64943.843      18.970466     -64924.873      340.51488      17654.874      13463.678    
    236000  -64945.61       19.879105     -64925.731      356.82471      17239.842      13463.678    
    237000  -64946.229      18.266727     -64927.963      327.88295      17682.817      13463.678    
    238000  -64946.542      17.513584     -64929.028      314.36422      17036.729      13463.678    
    239000  -64947.168      18.084729     -64929.083      324.61614      17385.758      13463.678    
    240000  -64949.336      16.628936     -64932.707      298.48504      18155.455      13463.678    
Loop time of 435.171 on 1 procs for 120000 steps with 432 atoms

Performance: 11.913 ns/day, 2.015 hours/ns, 275.754 timesteps/s
100.1% CPU use with 1 MPI tasks x 1 OpenMP threads

MPI task timing breakdown:
Section |  min time  |  avg time  |  max time  |%varavg| %total
---------------------------------------------------------------
Pair    | 395.97     | 395.97     | 395.97     |   0.0 | 90.99
Neigh   | 35.17      | 35.17      | 35.17      |   0.0 |  8.08
Comm    | 2.4355     | 2.4355     | 2.4355     |   0.0 |  0.56
Output  | 0.1015     | 0.1015     | 0.1015     |   0.0 |  0.02
Modify  | 1.2035     | 1.2035     | 1.2035     |   0.0 |  0.28
Other   |            | 0.294      |            |       |  0.07

Nlocal:            432 ave         432 max         432 min
Histogram: 1 0 0 0 0 0 0 0 0 0
Nghost:           2463 ave        2463 max        2463 min
Histogram: 1 0 0 0 0 0 0 0 0 0
Neighs:              0 ave           0 max           0 min
Histogram: 1 0 0 0 0 0 0 0 0 0
FullNghs:        57656 ave       57656 max       57656 min
Histogram: 1 0 0 0 0 0 0 0 0 0

Total # of neighbors = 57656
Ave neighs/atom = 133.46296
Neighbor list builds = 12000
Dangerous builds not checked
write_restart   nvt3.restart
System init for write_restart ...
Generated 0 of 0 mixed pair_coeff terms from geometric mixing rule
unfix           3



fix             4 all nvt temp ${temp1} ${temp1} ${tau}
fix             4 all nvt temp 300 ${temp1} ${tau}
fix             4 all nvt temp 300 300 ${tau}
fix             4 all nvt temp 300 300 0.05
timestep        ${dt}
timestep        0.0005
thermo_style    custom step pe ke etotal temp press vol
thermo         	${showt}
thermo         	1000
restart         5000 amorphous.restart
run     	${run4}
run     	60000
Generated 0 of 0 mixed pair_coeff terms from geometric mixing rule
Per MPI rank memory allocation (min/avg/max) = 3.919 | 3.919 | 3.919 Mbytes
   Step         PotEng         KinEng         TotEng          Temp          Press          Volume    
    240000  -64949.336      16.628936     -64932.707      298.48504      18155.455      13463.678    
    241000  -64948.907      16.285637     -64932.621      292.3229       17838.767      13463.678    
    242000  -64947.884      17.722271     -64930.161      318.1101       16838.202      13463.678    
    243000  -64949.201      17.229399     -64931.971      309.26318      17436.729      13463.678    
    244000  -64949.258      16.554626     -64932.703      297.15119      17716.903      13463.678    
    245000  -64950          16.432578     -64933.567      294.96045      17176.928      13463.678    
    246000  -64948.682      17.07186      -64931.61       306.43539      18491.14       13463.678    
    247000  -64949.11       16.500437     -64932.609      296.1785       18560.138      13463.678    
    248000  -64949.259      15.56823      -64933.691      279.44563      17472.135      13463.678    
    249000  -64950.114      17.020457     -64933.094      305.51273      18206.154      13463.678    
    250000  -64949.071      17.229628     -64931.841      309.26729      17335.375      13463.678    
    251000  -64948.205      18.011712     -64930.194      323.3055       17779.283      13463.678    
    252000  -64949.032      17.18363      -64931.848      308.44164      18593.431      13463.678    
    253000  -64950.102      17.094135     -64933.008      306.83522      18291.95       13463.678    
    254000  -64948.332      16.707569     -64931.625      299.89647      18326.196      13463.678    
    255000  -64949.448      17.033389     -64932.414      305.74485      17921.662      13463.678    
    256000  -64947.519      15.688356     -64931.83       281.60186      17632.348      13463.678    
    257000  -64950.414      17.244515     -64933.169      309.53451      17543.072      13463.678    
    258000  -64950.307      16.400787     -64933.906      294.38981      19084.97       13463.678    
    259000  -64949.537      17.008255     -64932.529      305.29371      19102.045      13463.678    
    260000  -64949.963      16.058818     -64933.905      288.25157      18326.998      13463.678    
    261000  -64947.353      16.004888     -64931.348      287.28354      19101.359      13463.678    
    262000  -64949.729      16.738526     -64932.99       300.45214      17608.555      13463.678    
    263000  -64949.041      16.485894     -64932.556      295.91746      17733.147      13463.678    
    264000  -64949.04       17.681294     -64931.358      317.37457      18345.185      13463.678    
    265000  -64949.465      18.213183     -64931.251      326.92185      17589.724      13463.678    
    266000  -64949.195      17.597578     -64931.597      315.87191      19120.275      13463.678    
    267000  -64949.773      17.099167     -64932.674      306.92555      19398.673      13463.678    
    268000  -64949.573      16.433284     -64933.14       294.97314      18891.178      13463.678    
    269000  -64949.771      16.992618     -64932.779      305.01303      17829.59       13463.678    
    270000  -64950.041      16.720576     -64933.32       300.12993      18034.028      13463.678    
    271000  -64949.476      17.945344     -64931.531      322.1142       18313.529      13463.678    
    272000  -64951.74       15.471729     -64936.268      277.71346      17753.047      13463.678    
    273000  -64950.148      16.491774     -64933.656      296.023        18637.912      13463.678    
    274000  -64949.297      17.406467     -64931.891      312.4415       19484.57       13463.678    
    275000  -64949.218      16.641649     -64932.576      298.71323      19897.928      13463.678    
    276000  -64949.482      17.054136     -64932.428      306.11726      18381.487      13463.678    
    277000  -64950.636      16.453019     -64934.183      295.32737      17732.986      13463.678    
    278000  -64950.675      16.958438     -64933.717      304.3995       18382.177      13463.678    
    279000  -64950.853      15.790208     -64935.063      283.43008      18075.132      13463.678    
    280000  -64950.945      16.911179     -64934.034      303.55122      19243.804      13463.678    
    281000  -64950.234      16.219501     -64934.014      291.13579      17095.364      13463.678    
    282000  -64951.151      16.351386     -64934.799      293.50308      16973.727      13463.678    
    283000  -64950.93       15.836872     -64935.093      284.26769      18260.965      13463.678    
    284000  -64952.104      16.36155      -64935.743      293.68552      18192.858      13463.678    
    285000  -64951.738      18.237873     -64933.5        327.36502      19276.2        13463.678    
    286000  -64951.533      17.08499      -64934.448      306.67108      19537.114      13463.678    
    287000  -64952.24       17.130876     -64935.109      307.49473      18429.974      13463.678    
    288000  -64951.586      17.253509     -64934.332      309.69594      19081.624      13463.678    
    289000  -64951.589      17.365561     -64934.224      311.70726      19011.422      13463.678    
    290000  -64951.635      17.422077     -64934.213      312.7217       17872.461      13463.678    
    291000  -64952.288      17.237627     -64935.051      309.41087      16822.099      13463.678    
    292000  -64953.318      15.501914     -64937.816      278.25528      18516.515      13463.678    
    293000  -64952.289      17.681411     -64934.608      317.37667      17810.474      13463.678    
    294000  -64951.975      17.083343     -64934.892      306.64151      20406.229      13463.678    
    295000  -64951.583      17.348535     -64934.234      311.40163      18882.244      13463.678    
    296000  -64951.373      15.875329     -64935.497      284.95799      18163.304      13463.678    
    297000  -64952.281      16.483151     -64935.798      295.86823      18685.344      13463.678    
    298000  -64952.389      16.4514       -64935.938      295.29831      17650.047      13463.678    
    299000  -64951.832      15.155148     -64936.677      272.03092      18284.325      13463.678    
    300000  -64952.489      17.534479     -64934.955      314.73929      18746.924      13463.678    
Loop time of 217.51 on 1 procs for 60000 steps with 432 atoms

Performance: 11.917 ns/day, 2.014 hours/ns, 275.850 timesteps/s
100.0% CPU use with 1 MPI tasks x 1 OpenMP threads

MPI task timing breakdown:
Section |  min time  |  avg time  |  max time  |%varavg| %total
---------------------------------------------------------------
Pair    | 197.75     | 197.75     | 197.75     |   0.0 | 90.91
Neigh   | 17.629     | 17.629     | 17.629     |   0.0 |  8.11
Comm    | 1.2148     | 1.2148     | 1.2148     |   0.0 |  0.56
Output  | 0.17218    | 0.17218    | 0.17218    |   0.0 |  0.08
Modify  | 0.60275    | 0.60275    | 0.60275    |   0.0 |  0.28
Other   |            | 0.1445     |            |       |  0.07

Nlocal:            432 ave         432 max         432 min
Histogram: 1 0 0 0 0 0 0 0 0 0
Nghost:           2459 ave        2459 max        2459 min
Histogram: 1 0 0 0 0 0 0 0 0 0
Neighs:              0 ave           0 max           0 min
Histogram: 1 0 0 0 0 0 0 0 0 0
FullNghs:        57454 ave       57454 max       57454 min
Histogram: 1 0 0 0 0 0 0 0 0 0

Total # of neighbors = 57454
Ave neighs/atom = 132.99537
Neighbor list builds = 6000
Dangerous builds not checked
write_restart   nvt4.restart
System init for write_restart ...
Generated 0 of 0 mixed pair_coeff terms from geometric mixing rule
unfix           4


##### s4-Amo-600K: to increase temperature up to 600K

fix             5 all nvt temp ${temp1} ${temp3} ${tau}
fix             5 all nvt temp 300 ${temp3} ${tau}
fix             5 all nvt temp 300 600 ${tau}
fix             5 all nvt temp 300 600 0.05
timestep        ${dt}
timestep        0.0005
thermo_style    custom step pe ke etotal temp press vol
thermo         	${showt}
thermo         	1000
run     	${run5}
run     	180000
Generated 0 of 0 mixed pair_coeff terms from geometric mixing rule
Per MPI rank memory allocation (min/avg/max) = 3.919 | 3.919 | 3.919 Mbytes
   Step         PotEng         KinEng         TotEng          Temp          Press          Volume    
    300000  -64952.489      17.534479     -64934.955      314.73929      18746.924      13463.678    
    301000  -64951.831      17.406342     -64934.425      312.43926      19961.105      13463.678    
    302000  -64952.058      16.892759     -64935.166      303.22059      19103.536      13463.678    
    303000  -64951.001      18.03043      -64932.971      323.64148      19093.96       13463.678    
    304000  -64950.555      17.257745     -64933.298      309.77198      18342.16       13463.678    
    305000  -64951.631      16.370359     -64935.261      293.84365      18699.246      13463.678    
    306000  -64949.425      17.221023     -64932.204      309.11283      19085.566      13463.678    
    307000  -64951.26       16.92057      -64934.34       303.71978      18763.155      13463.678    
    308000  -64951.634      16.802342     -64934.832      301.59761      20443.803      13463.678    
    309000  -64952.089      16.408395     -64935.681      294.52638      19713.57       13463.678    
    310000  -64951.178      19.069451     -64932.108      342.29163      17473.603      13463.678    
    311000  -64950.275      16.657053     -64933.618      298.98972      19313.799      13463.678    
    312000  -64949.946      18.441735     -64931.504      331.0243       18864.651      13463.678    
    313000  -64949.811      18.917956     -64930.893      339.57234      18123.271      13463.678    
    314000  -64949.781      17.1435       -64932.637      307.72132      19340.509      13463.678    
    315000  -64950.169      17.675019     -64932.494      317.26195      20000.274      13463.678    
    316000  -64948.763      17.56518      -64931.198      315.29036      17828.036      13463.678    
    317000  -64950.159      18.168526     -64931.99       326.12026      18622.702      13463.678    
    318000  -64948.926      18.028665     -64930.898      323.6098       18203.229      13463.678    
    319000  -64949.687      17.749691     -64931.937      318.60229      18006.896      13463.678    
    320000  -64949.941      17.638998     -64932.302      316.61537      16960.338      13463.678    
    321000  -64949.688      17.791953     -64931.896      319.36087      19292.428      13463.678    
    322000  -64949.972      18.83502      -64931.137      338.08365      18708.412      13463.678    
    323000  -64950.077      18.535746     -64931.541      332.71176      18795.847      13463.678    
    324000  -64949.068      19.044188     -64930.023      341.83816      19199.597      13463.678    
    325000  -64948.803      18.09604      -64930.706      324.81916      19296.952      13463.678    
    326000  -64950.147      19.385787     -64930.762      347.96978      19359.177      13463.678    
    327000  -64949.384      19.322946     -64930.061      346.84179      19887.384      13463.678    
    328000  -64948.441      19.963844     -64928.477      358.34574      19963.673      13463.678    
    329000  -64949.279      20.035008     -64929.244      359.62313      19067.283      13463.678    
    330000  -64949.229      19.11904      -64930.11       343.18173      19981.383      13463.678    
    331000  -64951.174      20.716114     -64930.458      371.84881      19535.045      13463.678    
    332000  -64948.606      19.445587     -64929.161      349.04318      19726.335      13463.678    
    333000  -64946.731      19.215163     -64927.515      344.90713      17958.219      13463.678    
    334000  -64949.256      20.138645     -64929.117      361.48339      19870.125      13463.678    
    335000  -64947.502      20.549759     -64926.952      368.86277      20269.472      13463.678    
    336000  -64947.314      19.259186     -64928.055      345.69733      17460.879      13463.678    
    337000  -64948.253      20.454621     -64927.798      367.15507      19413.825      13463.678    
    338000  -64948.33       19.788473     -64928.542      355.19788      18882.172      13463.678    
    339000  -64946.064      19.772898     -64926.291      354.91832      19770.681      13463.678    
    340000  -64948.863      21.02402      -64927.839      377.37564      17906.204      13463.678    
    341000  -64948.463      19.079937     -64929.383      342.47985      17837.776      13463.678    
    342000  -64948.146      20.917728     -64927.229      375.46771      17607.168      13463.678    
    343000  -64948.211      21.90958      -64926.301      393.27121      19457.098      13463.678    
    344000  -64945.83       19.395548     -64926.434      348.14499      18167.956      13463.678    
    345000  -64945.223      20.575365     -64924.648      369.32239      18863.444      13463.678    
    346000  -64944.626      22.162205     -64922.464      397.80576      20312.792      13463.678    
    347000  -64946.042      20.951776     -64925.09       376.07886      18454.495      13463.678    
    348000  -64946.854      19.883777     -64926.97       356.90856      20103.826      13463.678    
    349000  -64945.088      21.159306     -64923.929      379.80399      18266.518      13463.678    
    350000  -64946.434      22.223941     -64924.21       398.9139       18990.018      13463.678    
    351000  -64945.684      20.599488     -64925.084      369.75539      17403.569      13463.678    
    352000  -64946.365      21.366325     -64924.999      383.51992      18070.932      13463.678    
    353000  -64943.566      22.088372     -64921.478      396.48046      19055.122      13463.678    
    354000  -64946.351      20.830776     -64925.521      373.90695      18528.9        13463.678    
    355000  -64946.255      20.555645     -64925.699      368.96842      18548.472      13463.678    
    356000  -64945.726      21.781748     -64923.945      390.97665      17866.752      13463.678    
    357000  -64945.129      22.619523     -64922.51       406.0145       18241.977      13463.678    
    358000  -64945.452      21.938324     -64923.514      393.78714      17787.988      13463.678    
    359000  -64945.633      22.145744     -64923.487      397.51028      17877.917      13463.678    
    360000  -64944.702      23.324576     -64921.377      418.67001      18976.713      13463.678    
    361000  -64943.789      22.594029     -64921.195      405.55687      18127.566      13463.678    
    362000  -64943.533      24.085438     -64919.448      432.32727      17097.902      13463.678    
    363000  -64945.104      20.727134     -64924.377      372.0466       17218.412      13463.678    
    364000  -64945.74       23.20568      -64922.534      416.53586      18585.765      13463.678    
    365000  -64942.917      22.912123     -64920.005      411.26659      20504.787      13463.678    
    366000  -64945.661      23.058481     -64922.602      413.89367      18999.989      13463.678    
    367000  -64942.967      22.205192     -64920.762      398.57736      19902.608      13463.678    
    368000  -64943.718      24.004188     -64919.714      430.86886      18818.108      13463.678    
    369000  -64943.856      22.658502     -64921.197      406.71415      19779.432      13463.678    
    370000  -64943.115      21.648345     -64921.467      388.5821       19982.832      13463.678    
    371000  -64944.653      22.402258     -64922.251      402.11463      18693.326      13463.678    
    372000  -64943.126      21.96956      -64921.156      394.34783      17599.82       13463.678    
    373000  -64945.502      21.848039     -64923.654      392.16656      18067.615      13463.678    
    374000  -64944.305      23.350583     -64920.954      419.13683      19450.222      13463.678    
    375000  -64944.167      22.436965     -64921.73       402.73762      19080.967      13463.678    
    376000  -64943.099      24.599957     -64918.499      441.56276      18605.901      13463.678    
    377000  -64942.632      24.733139     -64917.899      443.95334      18227.529      13463.678    
    378000  -64942.187      24.046277     -64918.141      431.62435      18871.022      13463.678    
    379000  -64942.009      23.085294     -64918.924      414.37496      18555.847      13463.678    
    380000  -64942.276      23.538105     -64918.738      422.5028       18016.621      13463.678    
    381000  -64942.599      24.505076     -64918.093      439.85967      19620.03       13463.678    
    382000  -64941.906      25.419193     -64916.487      456.26783      16923.052      13463.678    
    383000  -64943.223      23.61743      -64919.605      423.92665      19607.83       13463.678    
    384000  -64941.673      24.33239      -64917.341      436.76         18266.672      13463.678    
    385000  -64942.91       25.224186     -64917.686      452.76751      18524.316      13463.678    
    386000  -64943.345      24.304127     -64919.04       436.25268      19126.229      13463.678    
    387000  -64941.709      23.077074     -64918.631      414.22742      18712.034      13463.678    
    388000  -64940.426      24.027605     -64916.398      431.28919      18474.385      13463.678    
    389000  -64942.433      25.625686     -64916.808      459.97432      18151.089      13463.678    
    390000  -64941.573      24.513411     -64917.06       440.00929      19375.303      13463.678    
    391000  -64941.226      23.532814     -64917.693      422.40783      18379.633      13463.678    
    392000  -64941.028      26.902288     -64914.126      482.88899      17844.358      13463.678    
    393000  -64941.075      24.866875     -64916.208      446.35387      16851.407      13463.678    
    394000  -64940.373      24.969448     -64915.404      448.19503      20824.912      13463.678    
    395000  -64941.868      25.023914     -64916.845      449.17267      19756.796      13463.678    
    396000  -64942.295      26.434482     -64915.861      474.49199      18138.467      13463.678    
    397000  -64941.359      25.088916     -64916.27       450.33945      20171.234      13463.678    
    398000  -64943.427      27.648023     -64915.779      496.27474      21401.764      13463.678    
    399000  -64941.278      26.94793      -64914.33       483.70826      18990.6        13463.678    
    400000  -64941.461      25.810892     -64915.65       463.29873      20602.751      13463.678    
    401000  -64940.686      27.027416     -64913.658      485.135        21037.46       13463.678    
    402000  -64940.94       26.50555      -64914.434      475.76765      21000.505      13463.678    
    403000  -64942.03       27.156376     -64914.873      487.44981      20033.364      13463.678    
    404000  -64942.52       25.97689      -64916.543      466.27834      21406.525      13463.678    
    405000  -64941.082      27.405826     -64913.677      491.92737      20212.139      13463.678    
    406000  -64942.268      25.765196     -64916.503      462.4785       20379.963      13463.678    
    407000  -64941.469      27.410765     -64914.059      492.01602      19711.654      13463.678    
    408000  -64940.564      26.750824     -64913.814      480.17025      20444.769      13463.678    
    409000  -64939.535      26.943773     -64912.592      483.63364      19033.959      13463.678    
    410000  -64937.799      26.632329     -64911.167      478.04331      20176.593      13463.678    
    411000  -64939.549      26.114743     -64913.434      468.75278      22416.324      13463.678    
    412000  -64939.99       26.262511     -64913.728      471.40517      20265.879      13463.678    
    413000  -64938.499      25.447567     -64913.051      456.77715      18902.954      13463.678    
    414000  -64940.092      24.339257     -64915.753      436.88326      17881.264      13463.678    
    415000  -64938.185      27.547223     -64910.637      494.4654       19414.085      13463.678    
    416000  -64941.069      25.737254     -64915.332      461.97694      19458.33       13463.678    
    417000  -64938.83       27.044127     -64911.786      485.43497      18927.091      13463.678    
    418000  -64936.983      27.144462     -64909.839      487.23596      19123.235      13463.678    
    419000  -64938.556      26.822409     -64911.733      481.45518      20426.505      13463.678    
    420000  -64937.023      29.699506     -64907.324      533.09833      19792.954      13463.678    
    421000  -64937.278      29.082514     -64908.196      522.02348      20476.559      13463.678    
    422000  -64937.083      28.244933     -64908.838      506.98911      20777.641      13463.678    
    423000  -64937.66       28.089008     -64909.571      504.19031      18443.43       13463.678    
    424000  -64937.837      29.107583     -64908.729      522.47346      20898.653      13463.678    
    425000  -64937.138      27.55953      -64909.578      494.68632      17940.928      13463.678    
    426000  -64938.87       29.722593     -64909.147      533.51273      21184.186      13463.678    
    427000  -64938.692      28.717934     -64909.974      515.47936      20145.097      13463.678    
    428000  -64937.793      29.505348     -64908.287      529.61323      20183.712      13463.678    
    429000  -64937.124      29.022196     -64908.102      520.94078      20210.394      13463.678    
    430000  -64939.381      29.196855     -64910.184      524.07587      20547.446      13463.678    
    431000  -64938.281      28.508341     -64909.773      511.71723      20620.171      13463.678    
    432000  -64937.731      30.091914     -64907.639      540.14194      20211.152      13463.678    
    433000  -64935.589      27.843302     -64907.746      499.77996      20498.357      13463.678    
    434000  -64935.716      28.557186     -64907.159      512.59397      19346.064      13463.678    
    435000  -64936.373      28.027001     -64908.346      503.0773       20796.75       13463.678    
    436000  -64938.034      29.896        -64908.138      536.62533      19369.946      13463.678    
    437000  -64936.933      29.296226     -64907.636      525.85955      20710.288      13463.678    
    438000  -64934.935      31.386283     -64903.548      563.37552      20244.767      13463.678    
    439000  -64932.804      28.281019     -64904.523      507.63685      20672.776      13463.678    
    440000  -64937.431      29.948463     -64907.482      537.56704      20664.224      13463.678    
    441000  -64935.477      29.677482     -64905.8        532.70301      18592.58       13463.678    
    442000  -64936.481      29.83744      -64906.643      535.57421      19496.246      13463.678    
    443000  -64934.781      27.804051     -64906.977      499.0754       19986.177      13463.678    
    444000  -64933.738      29.110237     -64904.628      522.5211       20233.973      13463.678    
    445000  -64935.93       28.787712     -64907.143      516.73186      18482.357      13463.678    
    446000  -64935.457      31.267784     -64904.189      561.2485       19208.581      13463.678    
    447000  -64932.518      30.636148     -64901.882      549.91081      19454.565      13463.678    
    448000  -64933.387      31.162855     -64902.224      559.36506      20822.317      13463.678    
    449000  -64933.396      31.175394     -64902.221      559.59013      19543.102      13463.678    
    450000  -64931.749      30.727199     -64901.022      551.54514      19487.229      13463.678    
    451000  -64933.995      30.116316     -64903.879      540.57994      19580.347      13463.678    
    452000  -64931.703      31.154979     -64900.548      559.22367      18406.992      13463.678    
    453000  -64932.652      31.19412      -64901.458      559.92625      18836.964      13463.678    
    454000  -64935.17       32.057799     -64903.112      575.42907      21300.84       13463.678    
    455000  -64933.835      30.794648     -64903.04       552.75584      20754.16       13463.678    
    456000  -64935.256      31.026712     -64904.229      556.92132      20054.505      13463.678    
    457000  -64935.202      32.501956     -64902.7        583.40156      18238.015      13463.678    
    458000  -64933.184      29.561988     -64903.622      530.62991      18266.096      13463.678    
    459000  -64933.379      31.554472     -64901.825      566.39448      18955.811      13463.678    
    460000  -64929.75       32.28643      -64897.463      579.53294      21061.343      13463.678    
    461000  -64934.807      32.484546     -64902.323      583.08907      19424.712      13463.678    
    462000  -64931.52       31.472053     -64900.048      564.91508      21430.869      13463.678    
    463000  -64932.555      31.322639     -64901.232      562.23314      18811.009      13463.678    
    464000  -64932.683      31.770871     -64900.912      570.27877      21901.589      13463.678    
    465000  -64933.407      30.178533     -64903.228      541.69674      18874.675      13463.678    
    466000  -64934.513      33.739449     -64900.773      605.61424      18870.045      13463.678    
    467000  -64930.03       33.357912     -64896.672      598.76575      20033.459      13463.678    
    468000  -64929.41       34.593825     -64894.816      620.95006      21230.916      13463.678    
    469000  -64929.205      33.851303     -64895.354      607.62198      19413.074      13463.678    
    470000  -64932.652      33.725514     -64898.927      605.36411      16970.854      13463.678    
    471000  -64930.979      32.176499     -64898.803      577.5597       18317.732      13463.678    
    472000  -64926.263      36.129359     -64890.133      648.51249      19655.755      13463.678    
    473000  -64927.803      32.631325     -64895.171      585.7237       17315.172      13463.678    
    474000  -64928.293      33.045073     -64895.248      593.15037      17213.188      13463.678    
    475000  -64927.051      33.108337     -64893.942      594.28594      20854.694      13463.678    
    476000  -64926.983      30.874845     -64896.108      554.19535      19309.088      13463.678    
    477000  -64925.721      33.254349     -64892.467      596.90682      18134.592      13463.678    
    478000  -64924.588      33.71151      -64890.876      605.11274      18768.938      13463.678    
    479000  -64929.758      33.683161     -64896.075      604.60388      18862.315      13463.678    
    480000  -64925.569      32.472331     -64893.097      582.8698       20680.143      13463.678    
Loop time of 652.001 on 1 procs for 180000 steps with 432 atoms

Performance: 11.926 ns/day, 2.012 hours/ns, 276.073 timesteps/s
99.8% CPU use with 1 MPI tasks x 1 OpenMP threads

MPI task timing breakdown:
Section |  min time  |  avg time  |  max time  |%varavg| %total
---------------------------------------------------------------
Pair    | 592.98     | 592.98     | 592.98     |   0.0 | 90.95
Neigh   | 52.667     | 52.667     | 52.667     |   0.0 |  8.08
Comm    | 3.6408     | 3.6408     | 3.6408     |   0.0 |  0.56
Output  | 0.4761     | 0.4761     | 0.4761     |   0.0 |  0.07
Modify  | 1.8033     | 1.8033     | 1.8033     |   0.0 |  0.28
Other   |            | 0.4324     |            |       |  0.07

Nlocal:            432 ave         432 max         432 min
Histogram: 1 0 0 0 0 0 0 0 0 0
Nghost:           2461 ave        2461 max        2461 min
Histogram: 1 0 0 0 0 0 0 0 0 0
Neighs:              0 ave           0 max           0 min
Histogram: 1 0 0 0 0 0 0 0 0 0
FullNghs:        57834 ave       57834 max       57834 min
Histogram: 1 0 0 0 0 0 0 0 0 0

Total # of neighbors = 57834
Ave neighs/atom = 133.875
Neighbor list builds = 18000
Dangerous builds not checked
write_restart   nvt5.restart
System init for write_restart ...
Generated 0 of 0 mixed pair_coeff terms from geometric mixing rule
unfix           5


#### s8-Amo to crys: stable a time in 600K

fix             6 all nvt temp ${temp3} ${temp3} ${tau}
fix             6 all nvt temp 600 ${temp3} ${tau}
fix             6 all nvt temp 600 600 ${tau}
fix             6 all nvt temp 600 600 0.05
timestep        ${dt}
timestep        0.0005
thermo_style    custom step pe ke etotal temp press vol
thermo         	${showt}
thermo         	1000
restart         20000 smc.restart
run     	${run6}
run     	2000000
Generated 0 of 0 mixed pair_coeff terms from geometric mixing rule
Per MPI rank memory allocation (min/avg/max) = 3.919 | 3.919 | 3.919 Mbytes
   Step         PotEng         KinEng         TotEng          Temp          Press          Volume    
    480000  -64925.569      32.472331     -64893.097      582.8698       20680.143      13463.678    
    481000  -64926.946      33.349003     -64893.597      598.60583      18687.059      13463.678    
    482000  -64928.838      32.604985     -64896.233      585.25091      18576.406      13463.678    
    483000  -64929.593      32.959701     -64896.633      591.61796      18548.415      13463.678    
    484000  -64927.917      34.562249     -64893.355      620.38327      20091.278      13463.678    
    485000  -64928.262      32.098337     -64896.163      576.1567       17640.822      13463.678    
    486000  -64930.339      34.047599     -64896.291      611.14544      17418.387      13463.678    
    487000  -64928.365      34.839806     -64893.525      625.36536      18840.601      13463.678    
    488000  -64929.261      35.129387     -64894.131      630.56326      18299.737      13463.678    
    489000  -64935.735      32.676165     -64903.058      586.52858      18010.262      13463.678    
    490000  -64930.464      34.407544     -64896.056      617.60637      20672.735      13463.678    
    491000  -64930.856      34.627476     -64896.229      621.5541       19461.738      13463.678    
    492000  -64928.193      31.276451     -64896.917      561.40407      19739.344      13463.678    
    493000  -64930.732      32.480781     -64898.252      583.02148      19745.711      13463.678    
    494000  -64930.202      33.699199     -64896.503      604.89176      18450.662      13463.678    
    495000  -64930.67       31.576386     -64899.094      566.78783      18835.659      13463.678    
    496000  -64928.52       33.707608     -64894.812      605.04271      19968.392      13463.678    
    497000  -64929.472      33.080003     -64896.392      593.77736      18075.821      13463.678    
    498000  -64929.085      34.096247     -64894.988      612.01868      16683.697      13463.678    
    499000  -64930.748      33.560454     -64897.188      602.40133      15799.063      13463.678    
    500000  -64930.391      35.073802     -64895.317      629.56552      18121.019      13463.678    
    501000  -64929.765      32.886058     -64896.879      590.29609      18009.637      13463.678    
    502000  -64928.243      35.08459      -64893.158      629.75917      19543.403      13463.678    
    503000  -64930.847      33.216897     -64897.63       596.23456      17578.857      13463.678    
    504000  -64926.951      33.979367     -64892.972      609.92071      18854.292      13463.678    
    505000  -64931.792      32.228673     -64899.563      578.49621      17263.691      13463.678    
    506000  -64935.721      33.865834     -64901.856      607.88281      18322.958      13463.678    
    507000  -64931.701      33.326748     -64898.374      598.20637      16876.445      13463.678    
    508000  -64935.095      33.794825     -64901.301      606.60822      17640.054      13463.678    
    509000  -64934.966      36.033719     -64898.932      646.79577      17673.917      13463.678    
    510000  -64936.172      31.242647     -64904.93       560.7973       17838.498      13463.678    
    511000  -64935.603      31.519907     -64904.083      565.77404      18594.81       13463.678    
    512000  -64936.567      35.289774     -64901.277      633.44216      16946.047      13463.678    
    513000  -64940.057      34.174069     -64905.883      613.41555      14808.273      13463.678    
    514000  -64941.8        30.074227     -64911.726      539.82447      16761.779      13463.678    
    515000  -64942.909      31.136117     -64911.773      558.88511      15674.775      13463.678    
    516000  -64944.304      36.241151     -64908.063      650.51912      15679.816      13463.678    
    517000  -64947.234      33.154106     -64914.08       595.10748      17200.181      13463.678    
    518000  -64945.548      32.563646     -64912.985      584.50888      16286.112      13463.678    
    519000  -64947.771      33.086858     -64914.684      593.90041      14515.639      13463.678    
    520000  -64947.751      33.555674     -64914.195      602.31553      14630.724      13463.678    
    521000  -64946.856      33.404139     -64913.452      599.59551      15498.281      13463.678    
    522000  -64947.562      35.068347     -64912.494      629.46761      16145.982      13463.678    
    523000  -64949.644      34.040584     -64915.604      611.01953      15267.189      13463.678    
    524000  -64947.336      33.855494     -64913.481      607.69721      16682.394      13463.678    
    525000  -64948.502      33.620098     -64914.882      603.47192      15478.143      13463.678    
    526000  -64948.457      35.74878      -64912.708      641.6812       15234.104      13463.678    
    527000  -64945.578      33.440999     -64912.137      600.25714      16432.932      13463.678    
    528000  -64948.764      32.589166     -64916.175      584.96696      16519.297      13463.678    
    529000  -64949.202      33.180726     -64916.021      595.58531      15934.72       13463.678    
    530000  -64946.036      34.839426     -64911.197      625.35853      17168.614      13463.678    
    531000  -64951.652      35.531487     -64916.121      637.78084      14352.916      13463.678    
    532000  -64951.397      35.019512     -64916.377      628.59104      15843.78       13463.678    
    533000  -64951.709      32.721094     -64918.988      587.33503      15810.156      13463.678    
    534000  -64949.351      34.557856     -64914.794      620.30444      16881.923      13463.678    
    535000  -64949.079      34.635785     -64914.443      621.70323      16734.403      13463.678    
    536000  -64952.368      34.885314     -64917.483      626.18221      18241.838      13463.678    
    537000  -64950.646      32.118216     -64918.528      576.51353      16338.111      13463.678    
    538000  -64951.556      31.532665     -64920.023      566.00304      16440.112      13463.678    
    539000  -64949.177      31.761139     -64917.416      570.10409      16912.862      13463.678    
    540000  -64950.767      32.774367     -64917.993      588.29126      19106.392      13463.678    
    541000  -64949.998      33.914585     -64916.084      608.75789      18924.961      13463.678    
    542000  -64950.688      32.271868     -64918.417      579.27155      18604.558      13463.678    
    543000  -64952.483      32.904628     -64919.578      590.62943      18029.23       13463.678    
    544000  -64952.633      34.354829     -64918.278      616.66015      18818.655      13463.678    
    545000  -64950.32       33.738538     -64916.581      605.59788      17985.128      13463.678    
    546000  -64951.582      32.908317     -64918.673      590.69563      18057.836      13463.678    
    547000  -64949.982      34.109608     -64915.873      612.25849      19305.317      13463.678    
    548000  -64952.514      35.011885     -64917.502      628.45412      18005.191      13463.678    
    549000  -64951.669      32.223241     -64919.445      578.3987       17812.289      13463.678    
    550000  -64950.171      30.871932     -64919.3        554.14307      17683.178      13463.678    
    551000  -64948.126      32.819179     -64915.307      589.09563      17348.676      13463.678    
    552000  -64950.662      33.23697      -64917.425      596.59487      16084.526      13463.678    
    553000  -64948.799      29.180038     -64919.619      523.774        18965.075      13463.678    
    554000  -64948.946      33.925578     -64915.021      608.95521      17266.395      13463.678    
    555000  -64948.725      36.64058      -64912.084      657.68879      18348.656      13463.678    
    556000  -64953.59       32.928652     -64920.661      591.06064      17965.599      13463.678    
    557000  -64950.075      31.033635     -64919.041      557.04559      17369.815      13463.678    
    558000  -64954.433      32.906353     -64921.527      590.66038      16394.564      13463.678    
    559000  -64950.897      32.577751     -64918.32       584.76206      19644.702      13463.678    
    560000  -64950.539      33.94529      -64916.594      609.30902      18447.986      13463.678    
    561000  -64950.705      32.512088     -64918.193      583.58344      17659.399      13463.678    
    562000  -64950.969      32.84477      -64918.125      589.55499      17993.981      13463.678    
    563000  -64951.926      30.696912     -64921.229      551.00151      17232.073      13463.678    
    564000  -64951.782      31.58355      -64920.198      566.91641      15667.092      13463.678    
    565000  -64947.941      33.364553     -64914.576      598.88495      18108.218      13463.678    
    566000  -64950.358      33.124189     -64917.234      594.57048      19464.957      13463.678    
    567000  -64952.544      31.443364     -64921.101      564.40012      19772.088      13463.678    
    568000  -64949.538      31.672628     -64917.866      568.51535      20965.701      13463.678    
    569000  -64951.605      35.157727     -64916.447      631.07195      16707.453      13463.678    
    570000  -64949.047      33.105525     -64915.942      594.23546      18356.407      13463.678    
    571000  -64946.515      32.236769     -64914.279      578.64153      18294.692      13463.678    
    572000  -64951.679      35.461325     -64916.218      636.52147      18918.011      13463.678    
    573000  -64950.151      33.513418     -64916.637      601.55705      17835.564      13463.678    
    574000  -64946.664      33.894301     -64912.77       608.39378      20282.461      13463.678    
    575000  -64949.54       34.74697      -64914.793      623.69897      18742.906      13463.678    
    576000  -64951.162      32.52055      -64918.641      583.73533      20062.849      13463.678    
    577000  -64951.156      32.702701     -64918.453      587.00489      16976.281      13463.678    
    578000  -64948.382      32.632991     -64915.749      585.75361      18733.872      13463.678    
    579000  -64949.672      31.375555     -64918.297      563.18295      18630.298      13463.678    
    580000  -64946.623      33.655307     -64912.968      604.10391      18605.554      13463.678    
    581000  -64950.865      31.577253     -64919.287      566.80339      18336.545      13463.678    
    582000  -64949.109      36.418082     -64912.691      653.695        16234.614      13463.678    
    583000  -64951.246      33.101563     -64918.144      594.16436      15817.236      13463.678    
    584000  -64950.462      33.942172     -64916.52       609.25306      18175.275      13463.678    
    585000  -64950.749      32.175378     -64918.574      577.53958      18072.771      13463.678    
    586000  -64949.744      32.04711      -64917.697      575.2372       17669.382      13463.678    
    587000  -64951.887      36.546435     -64915.34       655.99891      17301.941      13463.678    
    588000  -64951.166      32.466845     -64918.699      582.77133      18381.611      13463.678    
    589000  -64953.279      35.314139     -64917.965      633.87952      18067.021      13463.678    
    590000  -64953.263      31.73811      -64921.525      569.69073      16995.702      13463.678    
    591000  -64953.11       33.651143     -64919.458      604.02916      17507.798      13463.678    
    592000  -64951.109      33.484493     -64917.625      601.03785      18610.796      13463.678    
    593000  -64950.661      33.261633     -64917.399      597.03758      18933.078      13463.678    
    594000  -64954.171      34.200451     -64919.971      613.8891       18582.126      13463.678    
    595000  -64952.72       34.311102     -64918.409      615.87526      17590.543      13463.678    
    596000  -64949.889      32.029987     -64917.859      574.92984      18994.825      13463.678    
    597000  -64952.255      34.596572     -64917.658      620.99936      17922.515      13463.678    
    598000  -64952.23       34.28161      -64917.949      615.34588      17593.632      13463.678    
    599000  -64950.868      33.70783      -64917.16       605.04668      17968.489      13463.678    
    600000  -64952.103      35.173951     -64916.929      631.36318      18596.202      13463.678    
    601000  -64952.03       32.891427     -64919.138      590.39246      17842.983      13463.678    
    602000  -64954.194      34.095071     -64920.099      611.99756      17353.709      13463.678    
    603000  -64952.562      31.772185     -64920.79       570.30237      16341.977      13463.678    
    604000  -64956.399      32.177687     -64924.221      577.58102      17011.142      13463.678    
    605000  -64952.635      35.20173      -64917.434      631.8618       18585.405      13463.678    
    606000  -64952.696      35.258099     -64917.438      632.87361      14881.326      13463.678    
    607000  -64954.164      35.513305     -64918.651      637.45448      16270.719      13463.678    
    608000  -64952.286      34.496546     -64917.79       619.20392      17237.92       13463.678    
    609000  -64952.125      33.010982     -64919.114      592.53844      17699.873      13463.678    
    610000  -64953.23       34.012739     -64919.217      610.51972      17691.613      13463.678    
    611000  -64952.454      35.177096     -64917.277      631.41962      16446.576      13463.678    
    612000  -64955.359      31.996057     -64923.363      574.32082      16462.68       13463.678    
    613000  -64955.402      36.072342     -64919.33       647.48905      16499.756      13463.678    
    614000  -64955.092      33.041458     -64922.051      593.08549      15666.943      13463.678    
    615000  -64952.834      32.782553     -64920.051      588.4382       17180.303      13463.678    
    616000  -64953.408      34.305965     -64919.102      615.78305      16749.13       13463.678    
    617000  -64953.201      33.651167     -64919.55       604.0296       16510.166      13463.678    
    618000  -64953.272      33.39262      -64919.879      599.38874      18668.91       13463.678    
    619000  -64953.818      32.679975     -64921.138      586.59695      17365.007      13463.678    
    620000  -64952.558      32.766706     -64919.792      588.15375      16951.516      13463.678    
    621000  -64952.331      31.712274     -64920.619      569.22698      16776.554      13463.678    
    622000  -64954.099      35.106193     -64918.993      630.14693      15715.472      13463.678    
    623000  -64954.238      33.950311     -64920.287      609.39915      18597.181      13463.678    
    624000  -64953.802      34.363091     -64919.439      616.80845      16631.539      13463.678    
    625000  -64955.909      33.588611     -64922.32       602.90673      17272.371      13463.678    
    626000  -64950.418      34.544642     -64915.873      620.06724      16668.134      13463.678    
    627000  -64952.507      33.76977      -64918.737      606.15849      16548.452      13463.678    
    628000  -64952.109      35.339723     -64916.769      634.33873      16735.56       13463.678    
    629000  -64952.519      33.569429     -64918.949      602.56243      15693.842      13463.678    
    630000  -64953.07       29.982204     -64923.088      538.17268      14980.713      13463.678    
    631000  -64952.497      34.67193      -64917.825      622.35202      16274.23       13463.678    
    632000  -64955.997      33.120244     -64922.877      594.49967      14714.205      13463.678    
    633000  -64952.699      33.059448     -64919.639      593.4084       16591.714      13463.678    
    634000  -64951.641      34.199513     -64917.442      613.87226      15917.971      13463.678    
    635000  -64953.06       33.818591     -64919.242      607.03482      18651.931      13463.678    
    636000  -64955.848      33.750954     -64922.097      605.82075      16413.061      13463.678    
    637000  -64952.047      31.068087     -64920.979      557.66398      15719.52       13463.678    
    638000  -64951.384      33.698732     -64917.686      604.88339      18267.691      13463.678    
    639000  -64954.239      33.063666     -64921.176      593.48411      15514.813      13463.678    
    640000  -64955.236      34.076526     -64921.159      611.66468      15545.38       13463.678    
    641000  -64953.289      32.299587     -64920.99       579.76909      16466.028      13463.678    
    642000  -64952.662      33.403818     -64919.258      599.58976      14728.263      13463.678    
    643000  -64953.848      33.877281     -64919.97       608.08829      16882.367      13463.678    
    644000  -64951.547      33.012688     -64918.535      592.56906      15505.506      13463.678    
    645000  -64953.514      30.743181     -64922.77       551.83202      15135.709      13463.678    
    646000  -64953.673      32.034428     -64921.639      575.00956      18435.262      13463.678    
[...]
   2299000  -64952.908      36.142257     -64916.765      648.744        17652.798      13463.678    
   2300000  -64953.682      30.144324     -64923.538      541.08269      16431.275      13463.678    
   2301000  -64956.529      34.31756      -64922.211      615.99117      16465.418      13463.678    
   2302000  -64955.951      33.465289     -64922.485      600.69314      15320.114      13463.678    
   2303000  -64955.981      34.974532     -64921.006      627.78365      15366.932      13463.678    
   2304000  -64955.62       33.789359     -64921.831      606.5101       18121.592      13463.678    
   2305000  -64958.154      34.675593     -64923.479      622.41777      15474.513      13463.678    
   2306000  -64955.987      33.884245     -64922.103      608.2133       15275.868      13463.678    
   2307000  -64957.046      33.542427     -64923.503      602.07775      14833.224      13463.678    
   2308000  -64957.186      34.74676      -64922.439      623.6952       15413.006      13463.678    
   2309000  -64954.259      34.324931     -64919.934      616.12349      16562.182      13463.678    
   2310000  -64954.792      32.778495     -64922.013      588.36537      16534.218      13463.678    
   2311000  -64952.332      33.68273      -64918.649      604.59615      16857.893      13463.678    
   2312000  -64955.299      34.708091     -64920.591      623.0011       16912.698      13463.678    
   2313000  -64954.509      32.26555      -64922.243      579.15814      15069.85       13463.678    
   2314000  -64953.798      33.195013     -64920.603      595.84176      17374.459      13463.678    
   2315000  -64954.028      33.47751      -64920.55       600.9125       17376.629      13463.678    
   2316000  -64955.502      33.34322      -64922.159      598.50202      14667.685      13463.678    
   2317000  -64955.331      33.252637     -64922.078      596.8761       15608.741      13463.678    
   2318000  -64957.117      31.216665     -64925.9        560.33094      15447.923      13463.678    
   2319000  -64953.826      34.577612     -64919.248      620.65904      16519.399      13463.678    
   2320000  -64954.661      33.775668     -64920.886      606.26436      16216.468      13463.678    
   2321000  -64953.843      31.595731     -64922.247      567.13506      15730.003      13463.678    
   2322000  -64956.525      32.18189      -64924.343      577.65646      15453.927      13463.678    
   2323000  -64953.692      36.655776     -64917.036      657.96155      16513.519      13463.678    
   2324000  -64953.333      34.727218     -64918.606      623.34443      18008.282      13463.678    
   2325000  -64954.171      32.258003     -64921.913      579.02268      16805.292      13463.678    
   2326000  -64954.345      31.350949     -64922.994      562.74128      17023.728      13463.678    
   2327000  -64955.942      32.962254     -64922.98       591.66379      17689.381      13463.678    
   2328000  -64955.281      34.166151     -64921.115      613.27342      16043.068      13463.678    
   2329000  -64956.12       34.297226     -64921.823      615.62619      17335.603      13463.678    
   2330000  -64954.114      35.418068     -64918.696      635.745        17035.53       13463.678    
   2331000  -64955.701      34.046634     -64921.655      611.12812      16398.177      13463.678    
   2332000  -64955.175      32.517852     -64922.657      583.6869       14048.239      13463.678    
   2333000  -64956.452      31.851056     -64924.601      571.71808      14908.111      13463.678    
   2334000  -64956.89       32.294235     -64924.596      579.67302      13866.256      13463.678    
   2335000  -64954.137      32.237648     -64921.899      578.6573       16032.008      13463.678    
   2336000  -64954.74       35.519172     -64919.221      637.55979      15343.277      13463.678    
   2337000  -64954.292      33.628639     -64920.663      603.62522      17064.653      13463.678    
   2338000  -64954.381      33.450331     -64920.931      600.42465      16529.089      13463.678    
   2339000  -64953.104      34.351723     -64918.753      616.60439      18559.938      13463.678    
   2340000  -64953.808      34.291487     -64919.516      615.52318      15237.382      13463.678    
   2341000  -64953.309      34.529276     -64918.78       619.79143      16628.335      13463.678    
   2342000  -64951.6        32.406098     -64919.194      581.68095      16136.509      13463.678    
   2343000  -64953.604      33.180813     -64920.423      595.58687      15448.148      13463.678    
   2344000  -64953.643      33.420928     -64920.222      599.89687      17634.516      13463.678    
   2345000  -64951.044      35.064874     -64915.979      629.40527      17641.744      13463.678    
   2346000  -64956.013      34.547122     -64921.465      620.11176      14755.07       13463.678    
   2347000  -64955.766      35.385106     -64920.381      635.15334      18010.783      13463.678    
   2348000  -64955.97       36.186414     -64919.784      649.53662      16722.805      13463.678    
   2349000  -64955.99       34.024482     -64921.966      610.7305       16296.617      13463.678    
   2350000  -64955.59       31.722003     -64923.868      569.40162      15453          13463.678    
   2351000  -64951.697      35.048092     -64916.649      629.10404      17504.757      13463.678    
   2352000  -64955.274      33.999136     -64921.275      610.27556      14034.009      13463.678    
   2353000  -64954.691      33.793822     -64920.897      606.59021      15903.914      13463.678    
   2354000  -64952.824      34.935093     -64917.889      627.07574      16363.025      13463.678    
   2355000  -64954.305      34.926357     -64919.378      626.91892      15644.937      13463.678    
   2356000  -64956.184      31.983462     -64924.201      574.09474      14732.704      13463.678    
   2357000  -64955.572      33.397959     -64922.174      599.48457      16430.319      13463.678    
   2358000  -64956.602      34.983536     -64921.618      627.94527      17188.112      13463.678    
   2359000  -64954.956      33.933703     -64921.023      609.10104      16987.475      13463.678    
   2360000  -64956.547      33.735992     -64922.811      605.55219      15865.607      13463.678    
   2361000  -64954.987      31.81941      -64923.168      571.15005      15998.447      13463.678    
   2362000  -64951.137      32.566744     -64918.57       584.56448      17658.633      13463.678    
   2363000  -64956.116      31.956168     -64924.159      573.60482      14685.391      13463.678    
   2364000  -64955.726      32.865944     -64922.86       589.93506      16323.711      13463.678    
   2365000  -64955.94       33.345498     -64922.594      598.54293      14533.513      13463.678    
   2366000  -64953.401      31.351131     -64922.05       562.74457      15896.418      13463.678    
   2367000  -64954.008      31.457402     -64922.551      564.65209      16754.774      13463.678    
   2368000  -64955.133      33.690819     -64921.442      604.74134      16093.528      13463.678    
   2369000  -64955.419      33.093953     -64922.325      594.02776      16175.363      13463.678    
   2370000  -64955.16       31.183885     -64923.976      559.74254      15675.472      13463.678    
   2371000  -64953.124      33.49766      -64919.627      601.27418      18614.547      13463.678    
   2372000  -64955.165      33.3301       -64921.835      598.26653      15019.804      13463.678    
   2373000  -64953.519      34.584982     -64918.934      620.79133      16323.263      13463.678    
   2374000  -64955.281      31.266931     -64924.014      561.23319      16983.668      13463.678    
   2375000  -64955.746      33.605925     -64922.14       603.21752      15803.008      13463.678    
   2376000  -64954.08       33.247734     -64920.832      596.78807      17011.277      13463.678    
   2377000  -64956.177      36.390885     -64919.786      653.20682      15367.151      13463.678    
   2378000  -64956.64       31.862796     -64924.777      571.9288       15260.272      13463.678    
   2379000  -64954.134      32.05731      -64922.077      575.42028      15768.885      13463.678    
   2380000  -64952.464      31.156188     -64921.307      559.24538      15698.339      13463.678    
   2381000  -64954.201      33.624743     -64920.576      603.5553       16569.267      13463.678    
   2382000  -64954.503      33.119375     -64921.383      594.48407      15085.984      13463.678    
   2383000  -64954.721      33.220281     -64921.501      596.2953       16226.579      13463.678    
   2384000  -64954.914      35.346737     -64919.567      634.46464      15752.863      13463.678    
   2385000  -64956.694      33.437491     -64923.256      600.19417      16367.23       13463.678    
   2386000  -64956.441      32.793714     -64923.647      588.63855      14542.609      13463.678    
   2387000  -64956.186      31.653439     -64924.532      568.17091      14207.912      13463.678    
   2388000  -64951.76       32.607133     -64919.153      585.28946      15926.024      13463.678    
   2389000  -64954.616      35.024574     -64919.591      628.6819       15002.217      13463.678    
   2390000  -64955.436      33.897473     -64921.538      608.45072      15285.148      13463.678    
   2391000  -64955.318      33.811068     -64921.507      606.89978      17314.185      13463.678    
   2392000  -64956.887      33.408358     -64923.479      599.67124      14365.635      13463.678    
   2393000  -64952.783      34.068806     -64918.714      611.5261       17609.494      13463.678    
   2394000  -64953.591      33.133721     -64920.457      594.74159      13609.187      13463.678    
   2395000  -64955.31       34.074205     -64921.236      611.62303      17304.049      13463.678    
   2396000  -64954.339      35.88118      -64918.458      644.05775      15376.956      13463.678    
   2397000  -64954.32       33.569409     -64920.75       602.56206      14768.642      13463.678    
   2398000  -64956.056      32.315809     -64923.74       580.06027      17175.237      13463.678    
   2399000  -64953.273      34.294682     -64918.979      615.58052      15767.566      13463.678    
   2400000  -64956.146      34.802728     -64921.343      624.69982      14232.459      13463.678    
   2401000  -64952.324      33.138271     -64919.186      594.82325      17365.4        13463.678    
   2402000  -64957.782      33.956131     -64923.826      609.50362      14157.31       13463.678    
   2403000  -64955.002      33.658677     -64921.343      604.1644       16587.805      13463.678    
   2404000  -64953.946      36.56369      -64917.382      656.30863      16213.938      13463.678    
   2405000  -64955.952      32.198711     -64923.753      577.9584       13463.35       13463.678    
   2406000  -64953.951      33.870324     -64920.081      607.9634       18080.351      13463.678    
   2407000  -64953.822      34.961916     -64918.86       627.5572       17992.377      13463.678    
   2408000  -64956.664      33.669777     -64922.995      604.36365      15447.011      13463.678    
   2409000  -64955.374      32.332171     -64923.042      580.35396      14824.923      13463.678    
   2410000  -64954.174      34.389425     -64919.785      617.28114      16352.424      13463.678    
   2411000  -64954.525      31.973796     -64922.551      573.92123      13967.54       13463.678    
   2412000  -64955.329      33.340395     -64921.989      598.45132      16066.15       13463.678    
   2413000  -64955.067      37.220314     -64917.847      668.09485      17822.489      13463.678    
   2414000  -64954.912      33.26025      -64921.652      597.01274      16377.624      13463.678    
   2415000  -64955.553      32.811491     -64922.742      588.95763      17308.605      13463.678    
   2416000  -64954.611      31.792663     -64922.818      570.66994      15621.48       13463.678    
   2417000  -64955.628      33.901217     -64921.727      608.51793      16874.454      13463.678    
   2418000  -64956.222      32.996969     -64923.225      592.28692      16012.283      13463.678    
   2419000  -64955.073      32.783977     -64922.289      588.46377      15101.028      13463.678    
   2420000  -64951.743      33.51125      -64918.232      601.51813      16264.315      13463.678    
   2421000  -64953.801      32.5606       -64921.24       584.45421      15416.724      13463.678    
   2422000  -64952.064      32.845802     -64919.218      589.57352      16657.362      13463.678    
   2423000  -64952.36       33.320367     -64919.039      598.09183      17478.771      13463.678    
   2424000  -64955.577      34.655033     -64920.922      622.04873      15266.981      13463.678    
   2425000  -64954.212      32.90844      -64921.304      590.69785      16728.748      13463.678    
   2426000  -64952.177      33.467278     -64918.709      600.72884      16650.813      13463.678    
   2427000  -64954.631      32.577858     -64922.053      584.76398      15860.326      13463.678    
   2428000  -64953.936      35.273129     -64918.663      633.14339      16512.808      13463.678    
   2429000  -64955.152      33.728551     -64921.423      605.41862      15575.242      13463.678    
   2430000  -64955.637      31.759006     -64923.878      570.0658       16524.719      13463.678    
   2431000  -64954.674      35.158349     -64919.515      631.08312      15159.687      13463.678    
   2432000  -64955.267      29.916836     -64925.35       536.99935      14442.239      13463.678    
   2433000  -64953.615      33.996654     -64919.618      610.231        16334.356      13463.678    
   2434000  -64952.861      34.823878     -64918.037      625.07945      15586.982      13463.678    
   2435000  -64956.301      32.437181     -64923.864      582.23887      16842.009      13463.678    
   2436000  -64952.61       31.934309     -64920.676      573.21244      15115.122      13463.678    
   2437000  -64953.147      32.631162     -64920.516      585.72077      16680.315      13463.678    
   2438000  -64955.257      33.519426     -64921.738      601.66488      17838.541      13463.678    
   2439000  -64953.654      35.640563     -64918.014      639.73873      15132.909      13463.678    
   2440000  -64953.83       31.328273     -64922.502      562.33426      16709.762      13463.678    
   2441000  -64955.832      32.035795     -64923.797      575.0341       17114.551      13463.678    
   2442000  -64954.299      33.291198     -64921.008      597.56825      16450.18       13463.678    
   2443000  -64953.379      34.526442     -64918.853      619.74056      16756.971      13463.678    
   2444000  -64954.861      32.295651     -64922.565      579.69844      17512.152      13463.678    
   2445000  -64954.507      32.583024     -64921.924      584.85672      16140.755      13463.678    
   2446000  -64953.521      34.355465     -64919.166      616.67156      16876.905      13463.678    
   2447000  -64953.488      33.355088     -64920.133      598.71507      15634.862      13463.678    
   2448000  -64954.251      34.29201      -64919.959      615.53256      15460.261      13463.678    
   2449000  -64953.627      35.371286     -64918.256      634.90528      16941.646      13463.678    
   2450000  -64954.164      33.909761     -64920.254      608.6713       16823.149      13463.678    
   2451000  -64955.665      34.495969     -64921.169      619.19358      18483.658      13463.678    
   2452000  -64953.726      34.764597     -64918.962      624.01538      18695.401      13463.678    
   2453000  -64955.149      32.825477     -64922.323      589.20868      15349.949      13463.678    
   2454000  -64957.175      34.57944      -64922.596      620.69185      17093.777      13463.678    
   2455000  -64953.472      33.19057      -64920.281      595.762        15177.584      13463.678    
   2456000  -64954.748      34.089378     -64920.659      611.89537      14061.195      13463.678    
   2457000  -64952.671      32.601824     -64920.069      585.19416      15436.424      13463.678    
   2458000  -64954.959      29.264236     -64925.695      525.28534      15691.603      13463.678    
   2459000  -64953.786      33.169374     -64920.617      595.38154      16063.383      13463.678    
   2460000  -64956.503      31.550702     -64924.952      566.3268       13755.477      13463.678    
   2461000  -64952.808      31.565352     -64921.243      566.58977      15520.903      13463.678    
   2462000  -64955.156      32.077177     -64923.079      575.7769       15988.983      13463.678    
   2463000  -64955.432      33.740193     -64921.692      605.62759      16033.229      13463.678    
   2464000  -64952.333      32.2606       -64920.073      579.06929      17129.749      13463.678    
   2465000  -64956.242      33.75218      -64922.49       605.84276      14652.457      13463.678    
   2466000  -64955.292      32.976142     -64922.316      591.91308      16047.134      13463.678    
   2467000  -64957.202      33.690167     -64923.512      604.72963      15709.55       13463.678    
   2468000  -64955.388      33.315938     -64922.072      598.01232      15446.337      13463.678    
   2469000  -64956.195      32.200751     -64923.995      577.99502      16520.386      13463.678    
   2470000  -64953.468      35.56834      -64917.9        638.44235      14752.862      13463.678    
   2471000  -64955.337      32.858577     -64922.478      589.80282      15213.858      13463.678    
   2472000  -64955.774      34.149986     -64921.624      612.98327      16423.767      13463.678    
   2473000  -64955.405      33.434153     -64921.971      600.13426      17024.994      13463.678    
   2474000  -64953.228      35.202321     -64918.026      631.87241      16801.179      13463.678    
   2475000  -64956.292      33.148558     -64923.143      595.00791      16839.962      13463.678    
   2476000  -64955.951      35.084963     -64920.866      629.76586      15781.222      13463.678    
   2477000  -64954.86       34.295674     -64920.564      615.59833      14930.455      13463.678    
   2478000  -64957.691      32.604443     -64925.086      585.24118      14135.032      13463.678    
   2479000  -64951.345      31.908382     -64919.436      572.74706      16945.558      13463.678    
   2480000  -64954.729      32.866279     -64921.863      589.94107      15589.225      13463.678    
Loop time of 7254.45 on 1 procs for 2000000 steps with 432 atoms

Performance: 11.910 ns/day, 2.015 hours/ns, 275.693 timesteps/s
99.9% CPU use with 1 MPI tasks x 1 OpenMP threads

MPI task timing breakdown:
Section |  min time  |  avg time  |  max time  |%varavg| %total
---------------------------------------------------------------
Pair    | 6594.3     | 6594.3     | 6594.3     |   0.0 | 90.90
Neigh   | 591.56     | 591.56     | 591.56     |   0.0 |  8.15
Comm    | 40.584     | 40.584     | 40.584     |   0.0 |  0.56
Output  | 3.0662     | 3.0662     | 3.0662     |   0.0 |  0.04
Modify  | 20.057     | 20.057     | 20.057     |   0.0 |  0.28
Other   |            | 4.854      |            |       |  0.07

Nlocal:            432 ave         432 max         432 min
Histogram: 1 0 0 0 0 0 0 0 0 0
Nghost:           2421 ave        2421 max        2421 min
Histogram: 1 0 0 0 0 0 0 0 0 0
Neighs:              0 ave           0 max           0 min
Histogram: 1 0 0 0 0 0 0 0 0 0
FullNghs:        58558 ave       58558 max       58558 min
Histogram: 1 0 0 0 0 0 0 0 0 0

Total # of neighbors = 58558
Ave neighs/atom = 135.55093
Neighbor list builds = 200000
Dangerous builds not checked
write_restart   nvt6.restart
System init for write_restart ...
Generated 0 of 0 mixed pair_coeff terms from geometric mixing rule
unfix           6


Total wall time: 2:30:01
